LAMMPS (11 Feb 2026 - Development - b75dfcc)
OMP_NUM_THREADS environment is not set. Defaulting to 1 thread.
  using 1 OpenMP thread(s) per MPI task
package gpu 1
units metal
boundary p p p
atom_style atomic
timestep 0.002
read_data data.crystal
Reading data file ...
  orthogonal box = (0 0 0) to (49.08 49.08 49.08)
  1 by 1 by 1 MPI processor grid
  reading atoms ...
  6912 atoms
  read_data CPU = 0.015 seconds
change_box all triclinic
Changing box ...
  triclinic box = (0 0 0) to (49.08 49.08 49.08) with tilt (0 0 0)

pair_style eam
pair_coeff 1 1 Ag_u3.eam
Reading eam potential file Ag_u3.eam with DATE: 2007-06-11

neighbor 2.0 bin
neigh_modify delay 10 check yes

thermo 100
thermo_style custom step temp pe press pxx pyy pzz lx ly lz

print '=== Phase 1: 0K Relaxation ==='
=== Phase 1: 0K Relaxation ===
fix relax all box/relax aniso 0.0 vmax 0.001
minimize 1.0e-8 1.0e-10 10000 100000

CITE-CITE-CITE-CITE-CITE-CITE-CITE-CITE-CITE-CITE-CITE-CITE-CITE

Your simulation uses code contributions which should be cited:

- GPU package (short-range, long-range and three-body potentials): https://doi.org/10.1016/j.cpc.2010.12.021, https://doi.org/10.1016/j.cpc.2011.10.012, https://doi.org/10.1016/j.cpc.2013.08.002, https://doi.org/10.1016/j.commatsci.2014.10.068, https://doi.org/10.1016/j.cpc.2016.10.020, https://doi.org/10.3233/APC200086

@Article{Brown11,
 author = {W. M. Brown and P. Wang and S. J. Plimpton and A. N. Tharrington},
 title = {Implementing Molecular Dynamics on Hybrid High Performance Computers---Short Range Forces},
 journal = {Comput.\ Phys.\ Commun.},
 year =    2011,
 volume =  182,
 pages =   {898--911},
 doi =     {10.1016/j.cpc.2010.12.021}
}

@ArticDone.

Setting up cg style minimization ...
  Unit style    : metal
  Current step  : 0
WARNING: Energy due to 3 extra global DOFs will be included in minimizer energies
 (src/min.cpp:222)
Per MPI rank memory allocation (min/avg/max) = 4.079 | 4.079 | 4.079 Mbytes
   Step          Temp          PotEng         Press           Pxx            Pyy            Pzz             Lx             Ly             Lz      
         0   0             -19699.201     -0.14981409    -0.15034199    -0.14863379    -0.15046649     49.08          49.08          49.08        
         2   0             -19699.202      8.8924612      8.8956735      8.8837989      8.8979113      49.079857      49.079859      49.079857    
Loop time of 0.025548 on 1 procs for 2 steps with 6912 atoms

100.0% CPU use with 1 MPI tasks x 1 OpenMP threads

Minimization stats:
  Stopping criterion = linesearch alpha is zero
  Energy initial, next-to-last, final = 
     -19699.2007709317  -19699.2018442071  -19699.2018442071
  Force two-norm initial, final = 0.019173085 1.1365369
  Force max component initial, final = 0.01110307 0.65658183
  Final line search alpha, max atom move = 5.8099343e-09 3.8146973e-09
  Iterations, force evaluations = 2 41

MPI task timing breakdown:
Section |  min time  |  avg time  |  max time  |%varavg| %total
---------------------------------------------------------------
Pair    | 0.015027   | 0.015027   | 0.015027   |   0.0 | 58.82
Neigh   | 0          | 0          | 0          |   0.0 |  0.00
Comm    | 0.001216   | 0.001216   | 0.001216   |   0.0 |  4.76
Output  | 0          | 0          | 0          |   0.0 |  0.00
Modify  | 3.796e-06  | 3.796e-06  | 3.796e-06  |   0.0 |  0.01
Other   |            | 0.009301   |            |       | 36.41

Nlocal:           6912 ave        6912 max        6912 min
Histogram: 1 0 0 0 0 0 0 0 0 0
Nghost:           7983 ave        7983 max        7983 min
Histogram: 1 0 0 0 0 0 0 0 0 0
Neighs:              0 ave           0 max           0 min
Histogram: 1 0 0 0 0 0 0 0 0 0

Total # of neighbors = 0
Ave neighs/atom = 0
Neighbor list builds = 0
Dangerous builds = 0
=== Phase 2: Equilibration at 300.0K ===


---------------------------------------------------------------------
      Device Time Info (average): 
---------------------------------------------------------------------
Data Transfer:   0.0040 s.
Neighbor copy:   0.0000 s.
Neighbor build:  0.0001 s.
Force calc:      0.0069 s.
Device Overhead: 0.0012 s.
CPU Neighbor:    0.0004 s.
CPU Cast/Pack:   0.0034 s.
CPU Driver_Time: 0.0010 s.
CPU Idle_Time:   0.0076 s.
Average split:   1.0000.
Max Mem / Proc:  5.98 MB.
Prefetch mode:   None.
Vector width:    32.
Lanes / atom:    4.
Pair block:      256.
Neigh block:     128.
Neigh mode:      Hybrid (binning on host) with subgroup support.
Neigh sorting:   Unavailable or disabled.
---------------------------------------------------------------------


--------------------------------------------------------------------------
- Using acceleration for eam:
-  with 1 proc(s) per device.
-  with 1 thread(s) per proc.
-  Horizontal vector operations: ENABLED
-  Shared memory system: No
--------------------------------------------------------------------------
Device 0: NVIDIA RTX A4000, 48 CUs, 16/16 GB, 1.6 GHZ (Mixed Precision)
--------------------------------------------------------------------------

Initializing Device and compiling on process 0...Done.
Initializing Device 0 on core 0...Done.

Setting up Verlet run ...
  Unit style    : metal
  Current step  : 0
  Time step     : 0.002
Per MPI rank memory allocation (min/avg/max) = 3.162 | 3.162 | 3.162 Mbytes
   Step          Temp          PotEng         Press           Pxx            Pyy            Pzz             Lx             Ly             Lz      
         0   300           -19699.202      2430.1211      2493.9052      2395.063       2401.395       49.079857      49.079859      49.079857    
       100   198.57087     -19572.483      4963.0839      4982.1249      5020.8227      4886.3042      49.132077      49.131655      49.150624    
       200   210.00463     -19513.148      2482.9098      2354.9348      2489.7499      2604.0449      49.228243      49.230465      49.239829    
       300   247.16329     -19464.714      307.35115      319.38526      203.01263      399.65556      49.315531      49.318523      49.320947    
       400   283.20431     -19422.026      36.049086      65.372746      18.316808      24.457706      49.355185      49.358765      49.386404    
       500   306.64565     -19405.193     -740.01751     -1041.8578     -668.03007     -510.16463      49.415047      49.374779      49.400953    
       600   295.71533     -19417.832     -622.53822     -702.56816     -585.09991     -579.9466       49.363044      49.381827      49.401936    
       700   290.82125     -19428.402     -291.25656     -197.66515     -447.97948     -228.12503      49.348139      49.37429       49.380369    
       800   310.01029     -19423.184     -1113.899      -1278.9429     -929.92409     -1132.8299      49.405255      49.346284      49.410513    
       900   302.2856      -19414.73      -275.64338      102.3284      -481.38053     -447.87802      49.339733      49.40157       49.40022     
      1000   291.39544     -19423.114      467.24999      372.40132      359.23938      670.10928      49.403513      49.344361      49.329427    
      1100   300.68417     -19420.024      1188.8737      1093.0464      1392.0399      1081.5347      49.359957      49.305089      49.392475    
      1200   305.38415     -19418.095      1576.7756      1916.8342      1244.6469      1568.8456      49.307214      49.396929      49.337062    
      1300   301.53049     -19424.926      1897.1645      1283.4936      2327.9882      2080.0118      49.42676       49.284911      49.291948    
      1400   293.94671     -19420.694      1242.6772      1837.7681      1210.8682      679.39531      49.275187      49.335533      49.436225    
      1500   305.01183     -19419.715     -1284.351      -1479.4754     -1365.5335     -1008.044       49.417123      49.4014        49.357458    
      1600   297.75712     -19417.412     -1142.2845     -1194.5197     -1131.0616     -1101.272       49.394901      49.380649      49.396522    
      1700   292.78422     -19419.249     -249.55876      155.85234     -464.6381      -439.89052      49.334441      49.367193      49.421704    
      1800   298.53813     -19420.583     -493.15751     -818.37902     -402.69282     -258.40069      49.420559      49.360548      49.35267     
      1900   302.66085     -19418.066     -534.25225     -198.28832     -664.78779     -739.68065      49.34188       49.392636      49.408012    
      2000   301.6819      -19420.121      312.5421       295.11421      462.02592      180.48616      49.37509       49.341739      49.379301    
      2100   298.25143     -19424.448      799.77966      685.83856      928.93684      784.56357      49.377624      49.358054      49.324941    
      2200   297.67238     -19419.666      772.71913      997.99256      690.87792      629.28691      49.318015      49.361925      49.393617    
      2300   304.68426     -19419.771      363.70785      47.257328      716.85439      327.01183      49.409749      49.296929      49.388877    
      2400   295.36708     -19422.099     -69.81871      -90.78366      -461.72318      343.05071      49.363586      49.421994      49.32256     
      2500   295.55824     -19416.854     -888.24385     -839.4753      -624.36223     -1200.894       49.369462      49.364216      49.42824     
Loop time of 1.50005 on 1 procs for 2500 steps with 6912 atoms

Performance: 287.990 ns/day, 0.083 hours/ns, 1666.608 timesteps/s, 11.520 Matom-step/s
99.2% CPU use with 1 MPI tasks x 1 OpenMP threads

MPI task timing breakdown:
Section |  min time  |  avg time  |  max time  |%varavg| %total
---------------------------------------------------------------
Pair    | 0.90234    | 0.90234    | 0.90234    |   0.0 | 60.15
Neigh   | 0          | 0          | 0          |   0.0 |  0.00
Comm    | 0.073911   | 0.073911   | 0.073911   |   0.0 |  4.93
Output  | 0.0018735  | 0.0018735  | 0.0018735  |   0.0 |  0.12
Modify  | 0.47707    | 0.47707    | 0.47707    |   0.0 | 31.80
Other   |            | 0.04487    |            |       |  2.99

Nlocal:           6912 ave        6912 max        6912 min
Histogram: 1 0 0 0 0 0 0 0 0 0
Nghost:           7983 ave        7983 max        7983 min
Histogram: 1 0 0 0 0 0 0 0 0 0
Neighs:              0 ave           0 max           0 min
Histogram: 1 0 0 0 0 0 0 0 0 0

Total # of neighbors = 0
Ave neighs/atom = 0
Neighbor list builds = 0
Dangerous builds = 0
=== Phase 3: Tension ===


---------------------------------------------------------------------
      Device Time Info (average): 
---------------------------------------------------------------------
Data Transfer:   0.2924 s.
Neighbor copy:   0.0000 s.
Neighbor build:  0.0001 s.
Force calc:      0.3675 s.
Device Overhead: 0.0549 s.
CPU Neighbor:    0.0001 s.
CPU Cast/Pack:   0.18unfix eq

print '=== Phase 3: Tension ==='
=== Phase 3: Tension ===
reset_timestep 0

# 初期z寸法の記録
variable tmp equal lz
variable lz0 equal ${tmp}
variable lz0 equal 49.4282398595223
variable tmp delete

# z軸変形 + x,yゼロ圧力（Poisson収縮を許容）
fix deform_fix all deform 1 z erate 0.0005 remap x
fix npt_fix all npt temp 300.0 300.0 0.1 x 0.0 0.0 1.0 y 0.0 0.0 1.0 xy 0.0 0.0 1.0 xz 0.0 0.0 1.0 yz 0.0 0.0 1.0

# ひずみ・応力（sigma = -P [GPa]）
variable strain equal (lz-v_lz0)/v_lz0
variable stress equal -pzz/10000

# 欠陥解析用compute
# stress/atom: 単位は bar*Å³（実応力はボロノイ体積で割る必要あり）
compute peratom all stress/atom NULL
compute cna all cna/atom 3.493
compute csym all centro/atom fcc

thermo 100
thermo_style custom step temp v_strain v_stress pxx pyy pzz lx ly lz

fix out1 all print 100 "${strain} ${stress}" file stress_strain.txt screen no
dump 1 allDone.

Neighbor list info ...
  update: every = 1 steps, delay = 10 steps, check = yes
  max neighbors/atom: 2000, page size: 100000
  master list distance cutoff = 7.55
  ghost atom cutoff = 7.55
  binsize = 3.775, bins = 14 14 14
  2 neighbor lists, perpetual/occasional/extra = 0 2 0
  (1) compute cna/atom, occasional
      attributes: full, newton on
      pair build: full/bin/atomonly
      stencil: full/bin/3d
      bin: standard
  (2) compute centro/atom, occasional
      attributes: full, newton on
      pair build: full/bin/atomonly
      stencil: full/bin/3d
      bin: standard
Setting up Verlet run ...
  Unit style    : metal
  Current step  : 0
  Time step     : 0.002
Per MPI rank memory allocation (min/avg/max) = 5.315 | 5.315 | 5.315 Mbytes
   Step          Temp         v_strain       v_stress    v_stress_drop  v_drop_from_peak      Pxx            Pyy            Pzz             Lx             Ly             Lz      
         0   295.55824     -5.7500954e-16  0.12008933    -9.7144515e-17  0             -839.47419     -624.3619      -1200.8933      49.369462      49.364216      49.42824     
       100   303.61062      0.0001         0.11573832     0.0021755046   0.0043510092  -1107.8669     -899.28974     -1157.3832      49.385427      49.348011      49.433183    
       200   300.22678      0.0002         0.13934478    -0.014287301    0             -1016.8959     -486.57949     -1393.4478      49.387355      49.324797      49.438126    
       300   301.4275       0.0003         0.13140425    -0.0047600775   0.0079405312  -617.98751     -733.8113      -1314.0425      49.337053      49.363373      49.443068    
       400   304.25264      0.0004         0.087259403    0.031507814    0.052085376   -497.44026     -489.06278     -872.59403      49.360042      49.340571      49.448011    
       500   299.4439       0.0005         0.077571246    0.034329976    0.061773533   -287.76912      170.43997     -775.71246      49.37361       49.294899      49.452954    
       600   301.68944      0.0006         0.075456267    0.031238533    0.063888513    483.2256      -341.41325     -754.56267      49.270473      49.391585      49.457897    
       700   301.15615      0.0007         0.046736903    0.05246316     0.092607877    157.61448      681.13876     -467.36903      49.362218      49.281428      49.46284     
       800   292.84496      0.0008         0.022085165    0.068546576    0.11725961     605.60753      915.92645     -220.85165      49.326146      49.291818      49.467782    
       900   301.66584      0.0009         0.051694887    0.035043168    0.087649892    1244.3717      138.26491     -516.94887      49.241403      49.387302      49.472725    
      1000   303.07509      0.001          0.015022024    0.061209301    0.12432276     75.058124      1438.1259     -150.22024      49.408751      49.209398      49.477668    
      1100   302.96092      0.0011         0.069858971    0.001784418    0.069485808    836.3034      -36.73127      -698.58971      49.254793      49.352992      49.482611    
      1200   296.58162      0.0012         0.041168341    0.020657405    0.098176439         0.077571246    0.034329976    0.061773533   -287.76912      170.43997     -775.71246      49.37361       49.294899      49.452954    
       600   301.68944      0.0006         0.075456267    0.031238533    0.063888513    483.2256      -341.41325     -754.56267      49.270473      49.391585      49.457897    
       700   301.15615      0.0007         0.046736903    0.05246316     0.092607877    157.61448      681.13876     -467.36903      49.362218      49.281428      49.46284     
       800   292.84496      0.0008         0.022085165    0.068546576    0.11725961     605.60753      915.92645     -220.85165      49.326146      49.291818      49.467782    
       900   301.66584      0.0009         0.051694887    0.035043168    0.087649892    1244.3717      138.26491     -516.94887      49.241403      49.387302      49.472725    
      1000   303.07509      0.001          0.015022024    0.061209301    0.12432276     75.058    49.35423       49.512268    
      1800   297.05471      0.0018         0.19520208    -0.064899832    0.047843051   -622.54249     -659.09313     -1952.0208      49.317972      49.342971      49.517211    
      1900   297.12186      0.0019         0.20145065    -0.056172821    0.041594486   -596.59653     -666.60776     -2014.5065      49.336124      49.303361      49.522154    
      2000   297.5857       0.002          0.17057694    -0.0097436175   0.072468198   -215.79603     -288.02791     -1705.7694      49.297624      49.319572      49.527096    
      2100   302.44198      0.0021         0.15544327     0.013948478    0.087601863   -198.9065      -136.40658     -1554.4327      49.310164      49.307704      49.532039    
      2200   301.37087      0.0022         0.12216985     0.055322047    0.12087528     295.61983      658.90509     -1221.6985      49.331652      49.251555      49.536982    
      2300   296.43811      0.0023         0.088105712    0.086989653    0.15493942     1361.3054      563.25212     -881.05712      49.226888      49.318416      49.541925    
      2400   297.77318      0.0024         0.048943075    0.11404016     0.19410206     1275.3218      1685.2779     -489.43075      49.306132      49.235737      49.546868    
      2500   305.87715      0.0025         0.071123359    0.078867973    0.17192178     1276.2483      1029.2558     -711.23359      49.257285      49.273958      49.55181     
      2600   303.15812      0.0026         0.1508593     -0.0061673672   0.092185829    802.3905       537.42128     -1508.593       49.237642      49.307076      49.556753    
      2700   301.34709      0.0027         0.1538014     -0.018033838    0.089243731    61.262412      823.30434     -1538.014       49.336803      49.230217      49.561696    
      2800   304.4878       0.0028         0.214223      -0.076553344    0.028822134   -51.659587     -660.41634     -2142.23        49.246463      49.358893      49.566639    
      2900   303.40495      0.0029         0.27839967    -0.13303511     0             -1003.2371     -917.75483     -2783.9967      49.3076        49.307184      49.571582    
      3000   297.16124      0.003          0.27029415    -0.11495787     0.008105519   -1007.913      -960.40488     -2702.9415      49.343524      49.266353      49.576525    
      3100   300.8367       0.0031         0.2968297     -0.12735478     0             -763.23706     -1385.2729     -2968.297       49.28367       49.350902      49.581467    
      3200   302.08804      0.0032         0.27471941    -0.089989534    0.022110289   -667.08687     -545.96149     -2747.1941      49.303184      49.295914      49.58641     
      3300   300.21343      0.0033         0.21752231    -0.019850766    0.079307398   -167.67524      23.245975     -2175.2231      49.295863      49.265726      49.591353    
      3400   298.56411      0.0034         0.18970513     0.022042619    0.10712458     678.95808      266.56428     -1897.0513      49.242896      49.293552      49.596296    
      3500   306.48755      0.0035         0.19530412     0.028861701    0.10152558     276.50437      200.399076553344    0.028822134   -51.659587     -660.41634     -2142.23        49.246463      49.358893      49.566639    
      2900   303.40495      0.0029         0.27839967    -0.13303511     0             -1003.2371     -917.75483     -2783.9967      49.3076        49.307184      49.571582    
      3000   297.16124      0.003          0.27029415    -0.11495787     0.008105519   -1007.913      -960.40488     -2702.9415      49.343524      49.266353      49.576525    
      3100   300.8367       0.0031         0.2968297     -0.12735478     0             -763.23706     -1385.2729     -2968.297       49.28367       49.350902      49.581467    
      3200   302.08804      0.0032         0.27471941    -0.089989534    0.022110289   -667.08687     -545.96149     -2747.1941      49.303184      49.295914      49.58641     
      3300   300.21343      0.0033         0.21752231    -0.019850766    0.079307398   -167.67524      23.245975     -2953    
      4100   304.0799       0.0041         0.36335487    -0.11654228     0             -1733.4689     -1189.9667     -3633.5487      49.326949      49.252141      49.630896    
      4200   301.23142      0.0042         0.33136884    -0.078891308    0.031986029   -1084.7259     -1452.4811     -3313.6884      49.261824      49.313795      49.635838    
      4300   302.74395      0.0043         0.36320492    -0.096159132    0.00014994282 -1145.4191     -1039.3204     -3632.0492      49.295345      49.295943      49.640781    
      4400   301.14116      0.0044         0.33377272    -0.052320166    0.029582149   -735.00828     -777.73436     -3337.7272      49.281929      49.261563      49.645724    
      4500   297.97738      0.0045         0.30199565    -0.0098739475   0.061359215   -288.96417     -301.48431     -3019.9565      49.261359      49.268866      49.650667    
      4600   304.49472      0.0046         0.30155614    -0.0017391605   0.061798725   -579.55813     -376.25195     -3015.5614      49.280885      49.253238      49.65561     
      4700   300.31656      0.0047         0.30697286     0.0023760521   0.05638201    -53.071881     -356.50724     -3069.7286      49.24373       49.26807       49.660553    
      4800   301.8991       0.0048         0.30668404     0.012071033    0.056670822   -158.11262     -145.46731     -3066.8404      49.254784      49.241693      49.665495    
      4900   303.02615      0.0049         0.28221001     0.036391868    0.081144854   -37.552345      120.21717     -2822.1001      49.24626       49.253745      49.670438    
      5000   300.28674      0.005          0.28600687     0.031705822    0.077347996    501.47598     -48.944206     -2860.0687      49.210199      49.273927      49.675381    
      5100   298.08768      0.0051         0.32037584    -0.0069610503   0.042979027   -928.78314      212.4157      -3203.7584      49.32193       49.173634      49.680324    
      5200   305.29416      0.0052         0.3452918     -0.030484718    0.018063062   -390.62655     -1122.0306     -3452.918       49.200708      49.313629      49.685267    
      5300   297.91795      0.0053         0.34462863    -0.031679169    0.018726241   -511.51853     -566.06272     -3446.2863      49.245212      49.252988      49.69021     
      5400   298.1832       0.0054         0.35092364    -0.036259095    0.012431222   -964.89226     -293.21446     -3509.2364      49.296248      49.197116      49.695152    
      5500   298.85622      0.0055         0.33520171    -0.017216558    0.028153154   -403.59743     -504.18169     -3352.0171      49.207612      49.283478      49.700095    
      5600   300.18822      0.0056         0.34692423    -0.024402264    0.016430639   -431.39044      103.28499     -3469.2423      49.258593      49.227426      49.705038    
      5700   300.39021      0.0057         0.34739396    -0.020829882    0.015960911   -93.445895      49.558497     -3473.9396      49.240045      49.219028      49.709981    
      5800   300.45159      0.0058         0.3227509      0.0054198618   0.040603969    111.24003      90.623671     -3227.509       49  -928.78314      212.4157      -3203.7584      49.32193       49.173634      49.680324    
      5200   305.29416      0.0052         0.3452918     -0.030484718    0.018063062   -390.62655     -1122.0306     -3452.918       49.200708      49.313629      49.685267    
      5300   297.91795      0.0053         0.34462863    -0.031679169    0.018726241   -511.51853     -566.06272     -3446.2863      49.245212      49.252988      49.69021     
      5400   298.1832       0.0054         0.35092364    -0.036259095    0.012431222   -964.89226     -293.21446     -3509.2364      49.296248      49.197116      49.695152    
      5500   298.85622      0.0055         0.33520171    -0.017216558    0.028153154   -403.59743     -504.18169     -3352.0171      49.207612      49.283478      49.700095    
      5600   300.18822      0.0056         0.34692423    -0.024402264    0.016430639   -431.39044      103.28499     -3469.2423      49.258593  38264      0.0064         0.34088718    -0.0027824068   0.022467686    288.71704      279.00212     -3408.8718      49.226687      49.187634      49.744581    
      6500   296.16587      0.0065         0.33337678     0.0045455009   0.029978087    341.2944       575.23333     -3333.7678      49.253549      49.159987      49.749523    
      6600   305.07056      0.0066         0.38039378    -0.039124547    0              429.28173     -182.57427     -3803.9378      49.192734      49.233976      49.754466    
      6700   302.40471      0.0067         0.36040849    -0.017837798    0.019985296    104.17653      268.7081      -3604.0849      49.230749      49.173151      49.759409    
      6800   291.01476      0.0068         0.3422144      0.0023026384   0.038179382    755.66307      690.8272      -3422.144       49.197038      49.186707      49.764352    
      6900   302.35581      0.0069         0.36850244    -0.019228386    0.011891342    534.45613      266.2093      -3685.0244      49.207127      49.192082      49.769295    
      7000   303.71393      0.007          0.4136528     -0.055522995    0             -144.76033      115.07117     -4136.528       49.247265      49.162231      49.774238    
      7100   299.38088      0.0071         0.44203595    -0.074316154    0             -166.88732     -412.96263     -4420.3595      49.213553      49.203297      49.77918     
      7200   300.05899      0.0072         0.46052206    -0.081030623    0             -562.10095     -571.84888     -4605.2206      49.240911      49.198157      49.784123    
      7300   299.52324      0.0073         0.47190361    -0.080513859    0             -778.4685      -928.29073     -4719.0361      49.223504      49.223077      49.789066    
      7400   296.93191      0.0074         0.49134741    -0.084911634    0             -855.78762     -983.20957     -4913.4741      49.224312      49.208965      49.794009    
      7500   298.60983      0.0075         0.49832658    -0.075395827    0             -1256.2775     -483.77628     -4983.2658      49.278224      49.155428      49.798952    
      7600   303.71476      0.0076         0.49342285    -0.05918919     0.0049037306  -654.10479     -1176.3122     -4934.2285      49.169726      49.26701       49.803894    
      7700   303.43052      0.0077         0.48525061    -0.038532743    0.013075965   -911.70564     -687.26526     -4852.5061      49.215961      49.197926      49.808837    
      7800   302.63408      0.0078         0.50875842    -0.045386148    0             -729.00046     -529.03229     -5087.5842      49.224827      49.176281      49.81378     
      7900   307.46984      0.0079         0.47536993    -0.0013109047   0.033388495   -243.42928     -767.42606     -4753.6993      49.171974      49.228336      49.818723    
      8000   299.11379      0.008          0.43855245     0.037996539    0.070205974    132.09334      282.58363     -4385.5245      49.227597      49.142029      49.823666    
      8100   301.63614      0.0081         0.45607197     0.021880617    0.05268645    -273.05871     -142.36345     -4560.7197      49.200181      49.1727     57     -4913.4741      49.224312      49.208965      49.794009    
      7500   298.60983      0.0075         0.49832658    -0.075395827    0             -1256.2775     -483.77628     -4983.2658      49.278224      49.155428      49.798952    
      7600   303.71476      0.0076         0.49342285    -0.05918919     0.0049037306  -654.10479     -1176.3122     -4934.2285      49.169726      49.26701       49.803894    
      7700   303.43052      0.0077         0.48525061    -0.038532743    0.013075965   -911.70564     -687.26526     -4852.5061      49.215961      49.197926      49.808837    
      7800   302.63408      0.0078         0.50875842    -0.045386148    0             -729.00046     -529.03229     -5087.5842      49.224827      49.176281      49.81378     
      7900   307.46984      0.0079         0.47536993    -0.0013109047   0.033388495   -243.42928     -767.42606     -4753.6993      49.171974      49.228336      49.818 0.51861512    -0.043015838    0             -482.74848     -678.77779     -5186.1512      49.186843      49.189499      49.858266    
      8800   299.84024      0.0088         0.52167719    -0.044786027    0             -268.84342     -851.88341     -5216.7719      49.168471      49.206266      49.863208    
      8900   296.48977      0.0089         0.50147673    -0.021974888    0.020200458   -751.68917      251.64996     -5014.7673      49.249442      49.092522      49.868151    
      9000   302.9577       0.009          0.4827273      0.0011920322   0.038949893    156.95783     -287.55549     -4827.273       49.132864      49.207745      49.873094    
      9100   304.55189      0.0091         0.50460048    -0.015828302    0.017076708   -119.08892     -54.198566     -5046.0048      49.189684      49.14355       49.878037    
      9200   298.30963      0.0092         0.46969087     0.017980799    0.05198632     249.35024      501.41265     -4696.9087      49.192557      49.107708      49.88298     
      9300   298.3972       0.0093         0.45811575     0.032007162    0.063561441    979.38516      377.05685     -4581.1575      49.133986      49.157719      49.887922    
      9400   302.46065      0.0094         0.47199944     0.020187428    0.04967775     403.86594      842.54977     -4719.9944      49.190571      49.102597      49.892865    
      9500   306.11603      0.0095         0.4753488      0.015693595    0.046328391    367.37004      231.10066     -4753.488       49.155945      49.149703      49.897808    
      9600   301.0691       0.0096         0.49669858    -0.0066035527   0.024978611    379.83265      148.1689      -4966.9858      49.133961      49.156229      49.902751    
      9700   297.43756      0.0097         0.48583292     0.00098388479  0.035844269    146.69215      514.03862     -4858.3292      49.188056      49.095655      49.907694    
      9800   305.49102      0.0098         0.55175627    -0.061931558    0             -107.03406     -767.04758     -5517.5627      49.133902      49.190834      49.912637    
      9900   298.7814       0.0099         0.57572708    -0.078477335    0             -475.40539     -797.49402     -5757.2708      49.155166      49.178468      49.917579    
     10000   296.30994      0.01           0.63327972    -0.12097472     0             -1307.166      -891.8171      -6332.7972      49.227457      49.116522      49.922522    
     10100   295.68982      0.0101         0.60543499    -0.083046549    0.027844725   -814.72744     -1000.6075     -6054.3499      49.156494      49.186407      49.927465    
     10200   300.9857       0.0102         0.63990601    -0.10049606     0             -1106.0372     -998.46041     -6399.0601      49.190373      49.156335      49.932408    
     10300   300.86464      0.0103         0.62553752    -0.069385391    0.014368487   -847.42403     -619.41165     -6255.3752      49.178994      49.124706      49.937351    
     10400   296.81633      0.0104         0.59204631    -0.023889485    0.047859706   -97.250031     -271.99094     -5920.4631      49.120416      49.167856      49.942294    
     105.188056      49.095655      49.907694    
      9800   305.49102      0.0098         0.55175627    -0.061931558    0             -107.03406     -767.04758     -5517.5627      49.133902      49.190834      49.912637    
      9900   298.7814       0.0099         0.57572708    -0.078477335    0             -475.40539     -797.49402     -5757.2708      49.155166      49.178468      49.917579    
     10000   296.30994      0.01           0.63327972    -0.12097472     0             -1307.166      -891.8171      -6332.7972      49.227457      49.116522      49.922522    
     10100   295.68982      0.0101         0.60543499    -0.083046549    0.027844725   -814.72744     -1000.6075     -6054.3499      49.156494      49.186407      49.927465    
     10200   300.9857       0.0102         0.63990601    -0.10049606     0             -1106.0372     -998.46041     -6399.0601      49.190373      49.156335      49.932408    
     10300   300.28    0.16002893     1480.6572      1329.0463     -4798.7708      49.108458      49.077741      49.97195     
     11100   301.56406      0.0111         0.48786403     0.073206581    0.15204198     1003.0471      1939.3841     -4878.6403      49.16784       49.012819      49.976893    
     11200   305.11191      0.0112         0.50152678     0.04570591     0.13837923     1375.9008      624.42855     -5015.2678      49.032753      49.170783      49.981836    
     11300   297.93357      0.0113         0.53462469     0.0035167154   0.10528132     478.60529      886.90504     -5346.2469      49.139333      49.062597      49.986779    
     11400   296.31755      0.0114         0.60663223    -0.067032228    0.033273785    254.38889      417.19578     -6066.3223      49.149469      49.080272      49.991722    
     11500   302.13891      0.0115         0.61408533    -0.069654426    0.025820686    69.804245     -160.28788     -6140.8533      49.117152      49.12561       49.996665    
     11600   301.22007      0.0116         0.6390302     -0.087909822    0.0008758143  -191.32883     -118.62437     -6390.302       49.151644      49.087575      50.001607    
     11700   300.3276       0.0117         0.63512468    -0.075121837    0.0047813368  -40.864589     -120.21756     -6351.2468      49.134053      49.095681      50.00655     
     11800   306.23936      0.0118         0.67365676    -0.10165032     0             -391.68963     -543.94499     -6736.5676      49.12405       49.122484      50.011493    
     11900   303.0948       0.0119         0.66616315    -0.082304659    0.0074936049  -719.92613     -574.90116     -6661.6315      49.147071      49.096618      50.016436    
     12000   294.80913      0.012          0.70811712    -0.10143462     0             -907.63676     -786.95618     -7081.1712      49.124131      49.130163      50.021379    
     12100   296.18403      0.0121         0.77226855    -0.1371456      0             -981.18925     -1607.0745     -7722.6855      49.101327      49.184985      50.026322    
     12200   296.79217      0.0122         0.76965661    -0.10772068     0.0026119389  -1710.7085     -1045.2536     -7696.5661      49.194859      49.084594      50.031264    
     12300   299.16727      0.0123         0.75519415    -0.071201273    0.017074403   -996.20115     -1272.8392     -7551.9415      49.109855      49.146846      50.036207    
     12400   299.47951      0.0124         0.72408663    -0.028348316    0.048181919   -618.59495     -1099.7859     -7240.8663      49.094748      49.145119      50.04115     
     12500   303.52467      0.0125         0.68489414     0.017925063    0.087374417   -521.09212      181.35216     -6848.9414      49.163896      49.0561        50.046093    
     12600   305.63039      0.0126         0.6988477      0.009953244    0.073420848    179.72736     -580.5412      -6988.477       49.052833      49.156807      50.051036    
     12700   302.95995      0.0127         0.68919993     0.025008544    0.083068622   -26.587113      7.9128807     -6891.9993      49.099732      49.079566      50.055979    
     12800   301.96304      0.012   50.021379    
     12100   296.18403      0.0121         0.77226855    -0.1371456      0             -981.18925     -1607.0745     -7722.6855      49.101327      49.184985      50.026322    
     12200   296.79217      0.0122         0.76965661    -0.10772068     0.0026119389  -1710.7085     -1045.2536     -7696.5661      49.194859      49.084594      50.031264    
     12300   299.16727      0.0123         0.75519415    -0.071201273    0.017074403   -996.20115     -1272.8392     -7551.9415      49.109855      49.146846      50.036207    
     12400   299.47951      0.0124         0.72408663    -0.028348316    0.048181919   -618.59495     -1099.7859     -7240.8663      49.094748      49.145119      50.04115     
     12500   303.52467      0.0125         0.68489414     0.017925063    0.087374417   -521.09212      181.35216     -6848.9414      49.163896      49.0561        50.046093    
     12600   305.63039      0.0126        62724      636.26086     -6660.9142      49.090606      49.046016      50.085635    
     13400   298.51854      0.0134         0.70508876    -0.036594504    0.067179795    428.02266     -175.54781     -7050.8876      49.093577      49.057894      50.090578    
     13500   296.72394      0.0135         0.73718971    -0.063465899    0.035078843   -119.1923      -421.81181     -7371.8971      49.087606      49.084351      50.095521    
     13600   299.80342      0.0136         0.76780733    -0.087187555    0.0044612241  -470.29093     -763.22373     -7678.0733      49.086234      49.102803      50.100464    
     13700   303.43693      0.0137         0.78667814    -0.096310542    0             -1072.5771     -800.27638     -7866.7814      49.136823      49.067919      50.105407    
     13800   298.3685       0.0138         0.76214579    -0.064500086    0.024532348   -619.47796     -513.75407     -7621.4579      49.106623      49.06491       50.11035     
     13900   296.03312      0.0139         0.75490981    -0.045311496    0.031768329   -173.02726     -348.99072     -7549.0981      49.066942      49.088018      50.115292    
     14000   300.87513      0.014          0.75797424    -0.036398449    0.028703897   -309.07591     -144.28368     -7579.7424      49.099941      49.064032      50.120235    
     14100   298.24324      0.0141         0.77801482    -0.042551456    0.0086633195   10.682736     -82.471053     -7780.1482      49.068369      49.07234       50.125178    
     14200   297.7013       0.0142         0.74864034    -0.0021863091   0.038037792    61.981209     -13.790034     -7486.4034      49.057239      49.064254      50.130121    
     14300   300.84715      0.0143         0.75933598    -0.003557494    0.027342151    154.4134      -13.460428     -7593.3598      49.060757      49.07365       50.135064    
     14400   303.04543      0.0144         0.78145843    -0.018042971    0.0052197071  -27.184506      23.272046     -7814.5843      49.070913      49.056906      50.140007    
     14500   298.51022      0.0145         0.78097758    -0.013183336    0.0057005549   0.77860906     277.92982     -7809.7758      49.080657      49.028613      50.144949    
     14600   301.24406      0.0146         0.76165971     0.0055197712   0.025018423    225.50723      283.75686     -7616.5971      49.060109      49.049894      50.149892    
     14700   301.75461      0.0147         0.79224724    -0.024510845    0              368.2758      -9.4661862     -7922.4724      49.039824      49.069967      50.154835    
     14800   296.56034      0.0148         0.77009972    -0.0015679329   0.022147519    482.24432      402.55305     -7700.9972      49.039551      49.044606      50.159778    
     14900   303.66393      0.0149         0.76770385     0.002107341    0.024543388    258.84887      71.173298     -7677.0385      49.038688      49.065884      50.164721    
     15000   300.62832      0.015          0.79393898    -0.020531312    0              74.882676      224.71184     -7939.3898      49.050742      49.04676       50.169663    
     15100   296.36812      0.0151         0.79752379    -00   303.04543      0.0144         0.78145843    -0.018042971    0.0052197071  -27.184506      23.272046     -7814.5843      49.070913      49.056906      50.140007    
     14500   298.51022      0.0145         0.78097758    -0.013183336    0.0057005549   0.77860906     277.92982     -7809.7758      49.080657      49.028613      50.144949    
     14600   301.24406      0.0146         0.76165971     0.0055197712   0.025018423    225.50723      283.75686     -7616.5971      49.060109      49.049894      50.149892    
     14700   301.75461      0.0147         0.79224724    -0.024510845    0              368.2758      -9.4661862     -7922.4724      49.039824      49.069967      50.154835    
     14800   296.56034      0.0148         0.77009972    -0.0015679329   0.022147519    482.24432      402.55305     -7700.9972      49.039551      49.044606      50.159778    
     14900   303.66393      0.0149         0.76770385     0.0021073-8409.534       49.057309      49.028634      50.19932     
     15700   295.72985      0.0157         0.82991303    -0.02337882     0.011040364    634.05062      107.18636     -8299.1303      49.003446      49.062406      50.204263    
     15800   298.83963      0.0158         0.83189636    -0.019182485    0.0090570351   135.23699      305.74657     -8318.9636      49.048968      49.015411      50.209206    
     15900   301.83901      0.0159         0.85680568    -0.035181624    0             -189.47063      46.971571     -8568.0568      49.033993      49.038638      50.214149    
     16000   306.6312       0.016          0.89514057    -0.063396351    0             -62.973025     -425.90255     -8951.4057      48.992842      49.089092      50.219092    
     16100   301.89239      0.0161         0.89941894    -0.057485203    0             -535.11226     -135.23442     -8994.1894      49.067578      49.01408       50.224035    
     16200   297.68304      0.0162         0.8750138     -0.027539197    0.024405137   -417.08631     -478.24255     -8750.138       49.032709      49.035399      50.228977    
     16300   296.95141      0.0163         0.89499981    -0.038277035    0.0044191293  -29.76641      -441.77599     -8949.9981      49.001556      49.073553      50.23392     
     16400   301.70601      0.0164         0.90092253    -0.036526767    0             -645.70613     -363.78748     -9009.2253      49.082473      49.012083      50.238863    
     16500   300.5776       0.0165         0.94222364    -0.065494866    0             -842.77982     -752.39325     -9422.2364      49.04539       49.039004      50.243806    
     16600   298.07878      0.0166         0.92903197    -0.04349534     0.013191669   -280.62537     -839.88716     -9290.3197      48.972216      49.090495      50.248749    
     16700   301.45588      0.0167         0.89807591    -0.0057229864   0.044147735   -189.85257      444.95763     -8980.7591      49.06018       48.979495      50.253691    
     16800   304.19275      0.0168         0.87396231     0.022597206    0.068261332    215.95047      57.438722     -8739.6231      48.995394      49.032186      50.258634    
     16900   297.73266      0.0169         0.87990544     0.018964054    0.062318205    772.39478      290.51683     -8799.0544      48.956419      49.045571      50.263577    
     17000   303.4194       0.017          0.86406323     0.031698527    0.078160411    438.80944      473.53026     -8640.6323      48.997223      48.998473      50.26852     
     17100   301.90741      0.0171         0.84942551     0.041336905    0.092798132    682.61923      605.01518     -8494.2551      48.977331      49.023234      50.273463    
     17200   297.91124      0.0172         0.90046588    -0.0071582611   0.041757757    482.02151      434.99277     -9004.6588      48.978659      49.019129      50.278406    
     17300   296.40573      0.0173         0.9070692     -0.01255464     0.035154439    334.36357      672.45904     -9070.692       49.021515      48.97679       50.283348    
     17400   302.18256      0.0174         0.92375349    -0.026955835    0.018470147         0.89807591    -0.0057229864   0.044147735   -189.85257      444.95763     -8980.7591      49.06018       48.979495      50.253691    
     16800   304.19275      0.0168         0.87396231     0.022597206    0.068261332    215.95047      57.438722     -8739.6231      48.995394      49.032186      50.258634    
     16900   297.73266      0.0169         0.87990544     0.018964054    0.062318205    772.39478      290.51683     -8799.0544      48.956419      49.045571      50.263577    
     17000   303.4194       0.017          0.86406323     0.031698527    0.078160411    438.80944      473.53026     -8640.6323      48.997223      48.998473      50.26852     
     17100   301.90741      0.0171         0.84942551     0.041336905    0.092798132    682.61923      605.01518     -8494.2551      48.977331      49.023234      50.273463    
     17200   297.91124      0.0172         0.90046588    -0.0071582611   0.041757757    482.      48.98086       50.313005    
     18000   302.32642      0.018          1.029157      -0.062019056    0.018271017   -737.42405     -1303.0989     -10291.57       48.984739      49.048052      50.317948    
     18100   301.46294      0.0181         0.97025998     0.008961364    0.07716799    -65.641773     -106.52462     -9702.5998      49.022976      48.981656      50.322891    
     18200   301.87465      0.0182         0.97092588     0.01534147     0.076502096   -282.26072      258.37456     -9709.2588      49.045633      48.931727      50.327834    
     18300   303.61542      0.0183         0.97193879     0.020815514    0.075489182    824.54291     -165.18021     -9719.3879      48.920315      49.032456      50.332777    
     18400   303.95526      0.0184         0.92796283     0.06521241     0.11946514     717.65462      877.13159     -9279.6283      49.006612      48.938968      50.337719    
     18500   304.74564      0.0185         0.9004465      0.084950128    0.14698148     869.56164      1165.7814     -9004.465       48.991169      48.932427      50.342662    
     18600   297.15822      0.0186         0.87801795     0.097459702    0.16941002     1882.8054      958.92807     -8780.1795      48.880148      49.023164      50.347605    
     18700   300.92779      0.0187         0.92795497     0.037860049    0.119473       692.39268      964.53555     -9279.5497      48.991785      48.93104       50.352548    
     18800   305.92613      0.0188         1.0207098     -0.057566614    0.026718153    67.552528     -30.632206     -10207.098      48.99744       48.977334      50.357491    
     18900   299.85808      0.0189         1.0427613     -0.078747846    0.0046666247  -109.64361     -570.24498     -10427.613      48.950874      49.028759      50.362434    
     19000   296.23901      0.019          1.0935215     -0.12307156     0             -826.5137      -686.06726     -10935.215      49.018069      48.971493      50.367376    
     19100   299.30423      0.0191         1.0839375     -0.10211981     0.009583993   -789.09229     -809.15592     -10839.375      48.995765      48.992095      50.372319    
     19200   301.83476      0.0192         1.1085313     -0.11295309     0             -603.30464     -908.09149     -11085.313      48.986058      49.006113      50.377262    
     19300   298.73761      0.0193         1.0896089     -0.08226367     0.018922403   -580.20658     -392.59379     -10896.089      49.033574      48.930755      50.382205    
     19400   300.99808      0.0194         1.0855217     -0.062420578    0.023009603   -398.46204     -652.35171     -10855.217      48.983178      48.968008      50.387148    
     19500   304.35136      0.0195         1.0521374     -0.013867107    0.056393988   -68.958714     -353.71684     -10521.374      48.96704       48.983177      50.392091    
     19600   299.52122      0.0196         1.0566391     -0.00050673869  0.051892241   -148.69495      372.64792     -10566.391      49.008056      48.912947      50.397033    
     19700   303.40072      0.0197         1.0224653      0.043118061    0.086066003    462.22226      383.00.12307156     0             -826.5137      -686.06726     -10935.215      49.018069      48.971493      50.367376    
     19100   299.30423      0.0191         1.0839375     -0.10211981     0.009583993   -789.09229     -809.15592     -10839.375      48.995765      48.992095      50.372319    
     19200   301.83476      0.0192         1.1085313     -0.11295309     0             -603.30464     -908.09149     -11085.313      48.986058      49.006113      50.377262    
     19300   298.73761      0.0193         1.0896089     -0.08226367     0.018922403   -580.20658     -392.59379     -10896.089      49.033574      48.930755      50.382205    
     19400   300.99808      0.0194         1.0855217     -0.062420578    0.023009603   -398.46204     -652.35171     -10855.217      48.983178      48.968008      50.387148    
     19500   304.35136      0.0195         1.0521374     -0.013867107    0.056393988   -68.958714     -353.71684     2669     
     20300   295.09926      0.0203         1.0911647     -0.032537741    0.01736664     203.45094     -246.64023     -10911.647      48.938256      48.961955      50.431633    
     20400   295.94147      0.0204         1.1100025     -0.048927477    0              59.675471     -286.87647     -11100.025      48.939678      48.972644      50.436576    
     20500   297.61019      0.0205         1.1153976     -0.047996502    0             -344.65696     -95.543172     -11153.976      49.00753       48.911931      50.441519    
     20600   298.70584      0.0206         1.1175566     -0.04406376     0             -418.50588     -148.87407     -11175.566      48.972927      48.934684      50.446462    
     20700   295.13893      0.0207         1.1461092     -0.060252036    0             -61.860826     -468.00884     -11461.092      48.940743      48.958239      50.451404    
     20800   301.34976      0.0208         1.1571936     -0.057670543    0             -584.94917     -388.46166     -11571.936      48.976624      48.934787      50.456347    
     20900   300.83487      0.0209         1.1708293     -0.057475458    0             -288.37685     -986.44251     -11708.293      48.916841      48.995327      50.46129     
     21000   302.3942       0.021          1.1604795     -0.038102432    0.010349832   -595.58507     -365.45178     -11604.795      48.967296      48.946858      50.466233    
     21100   301.91305      0.0211         1.1381289     -0.0074586763   0.03270042    -447.18542     -3.0965733     -11381.289      48.958604      48.921469      50.471176    
     21200   301.23963      0.0212         1.1607267     -0.023967849    0.010102615   -115.13199     -453.28209     -11607.267      48.878961      48.99729       50.476119    
     21300   305.05735      0.0213         1.1369973      0.0043448485   0.033832057   -235.01242     -160.99813     -11369.973      48.952815      48.919113      50.481061    
     21400   302.91883      0.0214         1.1441034      0.00064882719  0.026725951   -6.6996192      207.97402     -11441.034      48.970328      48.881423      50.486004    
     21500   295.52558      0.0215         1.1331045      0.013418429    0.037724864    841.8295       302.7214      -11331.045      48.873159      48.962109      50.490947    
     21600   305.39094      0.0216         1.1562687     -0.0058745814   0.014560642   -102.68646      245.46094     -11562.687      48.956379      48.897384      50.49589     
     21700   299.0602       0.0217         1.1348528      0.014415647    0.035976513    326.11769      498.13457     -11348.528      48.966074      48.868647      50.500833    
     21800   299.54726      0.0218         1.1668603     -0.016625172    0.0039690198   501.00291     -222.63629     -11668.603      48.885332      48.95382       50.505775    
     21900   300.32137      0.0219         1.1656529     -0.015935392    0.0051764438   405.8079       49.06899      -11656.529      48.925537      48.919128      50.510718    
     22000   301.70449      0.022          1.1562001     -0.006910538    0.014629238   -47.766631      478.34159     -11562.001      7   -235.01242     -160.99813     -11369.973      48.952815      48.919113      50.481061    
     21400   302.91883      0.0214         1.1441034      0.00064882719  0.026725951   -6.6996192      207.97402     -11441.034      48.970328      48.881423      50.486004    
     21500   295.52558      0.0215         1.1331045      0.013418429    0.037724864    841.8295       302.7214      -11331.045      48.873159      48.962109      50.490947    
     21600   305.39094      0.0216         1.1562687     -0.0058745814   0.014560642   -102.68646      245.46094     -11562.687      48.956379      48.897384      50.49589     
     21700   299.0602       0.0217         1.1348528      0.014415647    0.035976513    326.11769      498.13457     -11348.528      48.966074      48.868647      50.500833    
     21800   299.54726      0.0218         1.1668603     -0.016625172    0.0039690198   501.00291     -222.63629     -11668.603      48.8853326.08841      0.0226         1.2138209     -0.042520928    0.0072850751  -57.312529     -20.571635     -12138.209      48.945486      48.880462      50.545318    
     22700   297.73181      0.0227         1.1997859     -0.021992638    0.021320051    13.222969     -103.12979     -11997.859      48.91699       48.912135      50.550261    
     22800   294.78305      0.0228         1.2204723     -0.037317768    0.00063372431  308.85648     -175.89619     -12204.723      48.839607      48.965233      50.555204    
     22900   297.72277      0.0229         1.2233834     -0.034455883    0              105.19707     -85.582427     -12233.834      48.889787      48.917283      50.560147    
     23000   299.43659      0.023          1.2119702     -0.017465672    0.011413194   -58.854433      300.26761     -12119.702      48.933248      48.873524      50.565089    
     23100   306.00747      0.0231         1.2945388     -0.087053001    0             -400.14571     -856.21785     -12945.388      48.880906      48.945397      50.570032    
     23200   292.72719      0.0232         1.3078077     -0.084072045    0             -706.50316     -499.23961     -13078.077      48.954081      48.869999      50.574975    
     23300   294.88623      0.0233         1.3214054     -0.08096027     0             -1233.4166     -888.73845     -13214.054      48.959747      48.886715      50.579918    
     23400   303.33471      0.0234         1.3665757     -0.10848905     0             -916.45942     -1520.4093     -13665.757      48.882006      48.968825      50.584861    
     23500   295.38729      0.0235         1.3426114     -0.072374178    0.023964335   -757.17884     -704.27952     -13426.114      48.942972      48.887695      50.589803    
     23600   299.6007       0.0236         1.315949      -0.035498985    0.050626723   -782.23446     -252.24423     -13159.49       48.97438       48.832117      50.594746    
     23700   301.31458      0.0237         1.2626251      0.024108779    0.10395057     351.27149      81.81222      -12626.251      48.880048      48.899626      50.599689    
     23800   300.56566      0.0238         1.2266774      0.060677048    0.13989833     368.11647      680.04065     -12266.774      48.923488      48.828877      50.604632    
     23900   298.59265      0.0239         1.2217704      0.065422732    0.14480532     609.68132      809.62284     -12217.704      48.908545      48.825818      50.609575    
     24000   299.7916       0.024          1.2055471      0.081003649    0.16102855     841.38618      716.14278     -12055.471      48.858137      48.888198      50.614518    
     24100   304.02138      0.0241         1.2403054      0.040822031    0.12627027     795.62734      721.94485     -12403.054      48.887078      48.843374      50.61946     
     24200   296.66112      0.0242         1.2105582      0.060844286    0.15601748     930.68491      1315.5751     -12105.582      48.909904      48.806648      50.624403    
     24300   301.16014      0.0243         1.2251526      0.036624587    0.14142305     1252.317       743.81732     -12251.526      48.837426      48.882974 4423     -13159.49       48.97438       48.832117      50.594746    
     23700   301.31458      0.0237         1.2626251      0.024108779    0.10395057     351.27149      81.81222      -12626.251      48.880048      48.899626      50.599689    
     23800   300.56566      0.0238         1.2266774      0.060677048    0.13989833     368.11647      680.04065     -12266.774      48.923488      48.828877      50.604632    
     23900   298.59265      0.0239         1.2217704      0.065422732    0.14480532     609.68132      809.62284     -12217.704      48.908545      48.825818      50.609575    
     24000   299.7916       0.024          1.2055471      0.081003649    0.16102855     841.38618      716.14278     -12055.471      48.858137      48.888198      50.614518    
     24100   304.02138      0.0241         1.2403054      0.040822031    0.12627027     795.62734      721.94485     -12403.054      48.887078      48.843374      50.6   1.3737199     -0.089750302    0.015188907   -301.97545     -78.110016     -13737.199      48.90996       48.849371      50.659003    
     25000   296.62259      0.025          1.3788033     -0.077508155    0.010105436   -198.96671     -274.16006     -13788.033      48.871482      48.858197      50.663946    
     25100   296.77763      0.0251         1.3265095     -0.016593968    0.06239921     236.0438      -186.22203     -13265.095      48.859177      48.871198      50.668889    
     25200   300.58255      0.0252         1.3454803     -0.022072517    0.043428452   -126.06855      366.87705     -13454.803      48.919708      48.805291      50.673832    
     25300   297.31018      0.0253         1.3377967     -0.0031245063   0.051112056    103.41705      161.28978     -13377.967      48.860527      48.843202      50.678774    
     25400   301.58026      0.0254         1.3727615     -0.025114968    0.016147235    349.17947      84.9855       -13727.615      48.819674      48.887854      50.683717    
     25500   301.39569      0.0255         1.3697335     -0.012110499    0.019175253    54.530369      469.0809      -13697.335      48.903122      48.814139      50.68866     
     25600   295.47843      0.0256         1.3547137      0.0061725141   0.034195074    419.04489      544.7961      -13547.137      48.8474        48.849558      50.693603    
     25700   299.06423      0.0257         1.3710788     -0.009128209    0.017829948    339.81402     -339.34479     -13710.788      48.776005      48.930028      50.698546    
     25800   302.11254      0.0258         1.4069828     -0.043224753    0             -431.02619      62.414255     -14069.828      48.915389      48.801099      50.703488    
     25900   301.23439      0.0259         1.4186563     -0.050404696    0             -459.45447     -305.81979     -14186.563      48.8812        48.834677      50.708431    
     26000   298.57956      0.026          1.4356692     -0.061730965    0             -324.20701     -720.40595     -14356.692      48.812296      48.904933      50.713374    
     26100   305.58904      0.0261         1.4905994     -0.10025215     0             -1235.7977     -852.18142     -14905.994      48.905711      48.834999      50.718317    
     26200   297.6328       0.0262         1.4865137     -0.082063122    0.0040856872  -644.19378     -763.48014     -14865.137      48.884969      48.840107      50.72326     
     26300   291.71737      0.0263         1.4587837     -0.042234456    0.031815652   -316.75119     -527.25509     -14587.837      48.862207      48.849242      50.728203    
     26400   298.70369      0.0264         1.4621763     -0.036685549    0.028423083   -319.54325     -325.85943     -14621.763      48.879496      48.83101       50.733145    
     26500   302.33687      0.0265         1.4282764      0.0030686065   0.062322947   -217.98375     -340.85581     -14282.764      48.851308      48.844729      50.738088    
     26600   298.22512      0.0266         1.4216046      0.016429552    0.068994805    122.97039     -6.3796106     -14216.046      48.832204      48.838425      50.743031    
     248.8812        48.834677      50.708431    
     26000   298.57956      0.026          1.4356692     -0.061730965    0             -324.20701     -720.40595     -14356.692      48.812296      48.904933      50.713374    
     26100   305.58904      0.0261         1.4905994     -0.10025215     0             -1235.7977     -852.18142     -14905.994      48.905711      48.834999      50.718317    
     26200   297.6328       0.0262         1.4865137     -0.082063122    0.0040856872  -644.19378     -763.48014     -14865.137      48.884969      48.840107      50.72326     
     26300   291.71737      0.0263         1.4587837     -0.042234456    0.031815652   -316.75119     -527.25509     -14587.837      48.862207      48.849242      50.728203    
     26400   298.70369      0.0264         1.4621763     -0.036685549    0.028423083   -319.54325     -325.85943     -14621.763      48.879496      48.83101       50.733145    
     26500   301832    0.041401701    370.46635      134.6388      -14491.977      48.808905      48.833776      50.772688    
     27300   301.19314      0.0273         1.4815677     -0.056323506    0.0090316243  -264.51005      113.76032     -14815.677      48.844829      48.818528      50.777631    
     27400   294.28445      0.0274         1.4994015     -0.070434766    0             -360.56515     -299.52199     -14994.015      48.836775      48.830474      50.782574    
     27500   298.04546      0.0275         1.5569302     -0.11509804     0             -837.8234      -535.99402     -15569.302      48.861547      48.811567      50.787516    
     27600   302.33508      0.0276         1.5306204     -0.07788671     0.026309747   -844.44043     -737.36093     -15306.204      48.855964      48.827646      50.792459    
     27700   299.39444      0.0277         1.5664539     -0.10086097     0             -544.70745     -581.63471     -15664.539      48.8238        48.844373      50.797402    
     27800   299.73096      0.0278         1.555275      -0.073473448    0.011178849   -517.36543     -679.75524     -15552.75       48.821219      48.834497      50.802345    
     27900   300.58421      0.0279         1.5548949     -0.054794715    0.011558972   -421.42596     -131.16548     -15548.949      48.850008      48.800671      50.807288    
     28000   299.66176      0.028          1.5309001     -0.016601072    0.035553834   -298.78882     -335.55016     -15309.001      48.788269      48.84926       50.812231    
     28100   304.33757      0.0281         1.5386906     -0.012297391    0.027763293    5.3264442     -221.04189     -15386.906      48.799822      48.839585      50.817173    
     28200   302.86106      0.0282         1.5115103      0.021114132    0.054943549   -169.67452      583.84513     -15115.103      48.867813      48.741759      50.822116    
     28300   301.15365      0.0283         1.513214       0.022575143    0.053239939    484.54229      204.95763     -15132.14       48.764325      48.832452      50.827059    
     28400   306.90695      0.0284         1.5169092      0.020630676    0.049544707    180.74932      117.15832     -15169.092      48.777769      48.82969       50.832002    
     28500   297.14866      0.0285         1.5079557      0.024686706    0.058498184    28.872135      729.20692     -15079.557      48.852294      48.741629      50.836945    
     28600   293.19793      0.0286         1.5150901      0.015999275    0.051363786    431.24109      267.95453     -15150.901      48.775123      48.79351       50.841888    
     28700   291.98056      0.0287         1.5085527      0.016746536    0.057901164    472.74195      268.59056     -15085.527      48.766421      48.827         50.84683     
     28800   298.66798      0.0288         1.5395733     -0.015844239    0.02688056    -476.48159     -64.47801      -15395.733      48.854947      48.755531      50.851773    
     28900   298.60845      0.0289         1.5670295     -0.042086969    0             -449.2833      -322.60261     -15670.295      48.827403      48.788769      50.856716    
     29000   295.12264      0.0     50.822116    
     28300   301.15365      0.0283         1.513214       0.022575143    0.053239939    484.54229      204.95763     -15132.14       48.764325      48.832452      50.827059    
     28400   306.90695      0.0284         1.5169092      0.020630676    0.049544707    180.74932      117.15832     -15169.092      48.777769      48.82969       50.832002    
     28500   297.14866      0.0285         1.5079557      0.024686706    0.058498184    28.872135      729.20692     -15079.557      48.852294      48.741629      50.836945    
     28600   293.19793      0.0286         1.5150901      0.015999275    0.051363786    431.24109      267.95453     -15150.901      48.775123      48.79351       50.841888    
     28700   291.98056      0.0287         1.5085527      0.016746536    0.057901164    472.74195      268.59056     -15085.527      48.766421      48.827         50.84683     
     28800   298.66798      0.0288      2.25956     -113.7215      -16095.152      48.849566      48.72034       50.886373    
     29600   303.02918      0.0296         1.6204365     -0.051130041    0             -357.80617     -25.814589     -16204.365      48.790977      48.792752      50.891316    
     29700   302.85203      0.0297         1.6183787     -0.038089708    0.0020577322   285.86764     -600.28656     -16183.787      48.715496      48.857725      50.896259    
     29800   297.50863      0.0298         1.598622      -0.012428072    0.021814505    14.60267       117.43521     -15986.22       48.798687      48.7521        50.901201    
     29900   297.98893      0.0299         1.6069591     -0.016772295    0.01347732     39.920509      163.5565      -16069.591      48.801381      48.762335      50.906144    
     30000   305.05055      0.03           1.6172196     -0.021048894    0.0032168731  -140.46518     -112.77979     -16172.196      48.764177      48.804153      50.911087    
     30100   300.89235      0.0301         1.6388111     -0.037444177    0             -315.27719     -462.43152     -16388.111      48.786803      48.780172      50.91603     
     30200   298.34552      0.0302         1.6621475     -0.052855205    0             -494.53561     -371.55219     -16621.475      48.81618       48.750909      50.920973    
     30300   302.77191      0.0303         1.6645476     -0.044474366    0             -595.6071       7.0265468     -16645.476      48.786544      48.781482      50.925916    
     30400   303.80368      0.0304         1.665127      -0.034950575    0             -16.680129     -616.24044     -16651.27       48.711404      48.850968      50.930858    
     30500   294.67759      0.0305         1.6493689     -0.015207129    0.015758075    12.009272      155.23769     -16493.689      48.783126      48.755455      50.935801    
     30600   299.8755       0.0306         1.6255271      0.0091437206   0.039599856    214.70479      832.67736     -16255.271      48.819551      48.701258      50.940744    
     30700   305.4655       0.0307         1.6153958      0.018976821    0.049731254    919.03201      712.62788     -16153.958      48.72223       48.776759      50.945687    
     30800   302.17108      0.0308         1.5772167      0.055015348    0.087910308    1327.5768      1231.9036     -15772.167      48.721841      48.744633      50.95063     
     30900   302.12143      0.0309         1.5646714      0.063331898    0.10045563     1051.0193      1475.5685     -15646.714      48.794657      48.666349      50.955572    
     31000   297.58694      0.031          1.5425278      0.078006281    0.1225992      1380.9514      1370.2487     -15425.278      48.715134      48.752455      50.960515    
     31100   297.97279      0.0311         1.5971699      0.01920007     0.067957109    1116.2007      563.0331      -15971.699      48.664358      48.807472      50.965458    
     31200   302.3965       0.0312         1.670724      -0.053496413    0              41.32333       372.36068     -16707.24       48.781781      48.709464      50.970401    
     31300   303.29512      0.0313         1.6827445    0600   299.8755       0.0306         1.6255271      0.0091437206   0.039599856    214.70479      832.67736     -16255.271      48.819551      48.701258      50.940744    
     30700   305.4655       0.0307         1.6153958      0.018976821    0.049731254    919.03201      712.62788     -16153.958      48.72223       48.776759      50.945687    
     30800   302.17108      0.0308         1.5772167      0.055015348    0.087910308    1327.5768      1231.9036     -15772.167      48.721841      48.744633      50.95063     
     30900   302.12143      0.0309         1.5646714      0.063331898    0.10045563     1051.0193      1475.5685     -15646.714      48.794657      48.666349      50.955572    
     31000   297.58694      0.031          1.5425278      0.078006281    0.1225992      1380.9514      1370.2487     -15425.278      48.715134      48.752455      50.960515    
     31100   297.97279      0.0311         1.5971699      0.01920  -18045.165      48.755149      48.784515      51.000058    
     31900   299.51135      0.0319         1.7755144     -0.067528359    0.029002143   -1145.4721     -777.64271     -17755.144      48.797779      48.740452      51.005001    
     32000   296.32099      0.032          1.8225845     -0.086592783    0             -955.58829     -992.6123      -18225.845      48.763027      48.775628      51.009944    
     32100   302.3143       0.0321         1.824039      -0.065360455    0             -1052.5522     -1294.7549     -18240.39       48.754841      48.788286      51.014886    
     32200   304.35366      0.0322         1.8192596     -0.045727415    0.0047794889  -1036.489      -718.20523     -18192.596      48.78161       48.750374      51.019829    
     32300   297.72094      0.0323         1.77318        0.0093956412   0.050858994   -7.1397406     -124.67291     -17731.8        48.724909      48.757431      51.024772    
     32400   300.6091       0.0324         1.7119898      0.068884       0.11204928     459.08265      235.92051     -17119.898      48.720985      48.741107      51.029715    
     32500   302.92798      0.0325         1.6926159      0.084465825    0.13142314     891.53597      839.19548     -16926.159      48.734906      48.705921      51.034658    
     32600   301.84456      0.0326         1.7156007      0.058180584    0.10843834     1070.0994      673.40456     -17156.007      48.707781      48.721641      51.0396      
     32700   300.99977      0.0327         1.736512       0.03106927     0.087527081    744.05143      705.30931     -17365.12       48.713304      48.718466      51.044543    
     32800   306.1222       0.0328         1.7270293      0.032803216    0.097009748    612.57266      689.22911     -17270.293      48.717615      48.726023      51.049486    
     32900   300.26222      0.0329         1.7222673      0.032240513    0.10177175     936.73899      718.46271     -17222.673      48.683368      48.740597      51.054429    
     33000   297.18782      0.033          1.7445427      0.0021609078   0.079496322    715.4489       892.57936     -17445.427      48.712608      48.702187      51.059372    
     33100   301.50927      0.0331         1.7505041     -0.011154007    0.073534896    449.28853      501.19567     -17505.041      48.741471      48.692965      51.064315    
     33200   298.41377      0.0332         1.7693981     -0.035034085    0.054640966    406.01512      212.60174     -17693.981      48.699182      48.742228      51.069257    
     33300   297.28333      0.0333         1.8143984     -0.075912582    0.0096406334   357.31751     -213.65104     -18143.984      48.664018      48.768473      51.0742      
     33400   300.17991      0.0334         1.821874      -0.072399792    0.0021649953   119.57473      220.68177     -18218.74       48.761678      48.680244      51.079143    
     33500   297.39114      0.0335         1.8377761     -0.073785869    0             -64.530584      11.292899     -18377.761      48.788046      48.662746      51.084086    
     33600   295.72364      0.0336         1.8290742     -0.053736527    0.008701329         1.7222673      0.032240513    0.10177175     936.73899      718.46271     -17222.673      48.683368      48.740597      51.054429    
     33000   297.18782      0.033          1.7445427      0.0021609078   0.079496322    715.4489       892.57936     -17445.427      48.712608      48.702187      51.059372    
     33100   301.50927      0.0331         1.7505041     -0.011154007    0.073534896    449.28853      501.19567     -17505.041      48.741471      48.692965      51.064315    
     33200   298.41377      0.0332         1.7693981     -0.035034085    0.054640966    406.01512      212.60174     -17693.981      48.699182      48.742228      51.069257    
     33300   297.28333      0.0333         1.8143984     -0.075912582    0.0096406334   357.31751     -213.65104     -18143.984      48.664018      48.768473      51.0742      
     33400   300.17991      0.0334         1.821874      -0.072399792    0.0021649953   1185      48.689157      51.113743    
     34200   302.30955      0.0342         1.82969       -0.0098748697   0.0080861468   280.31058      387.58542     -18296.9        48.713838      48.680201      51.118686    
     34300   300.9388       0.0343         1.8349586     -0.01308749     0.0028175032   599.56886      297.5455      -18349.586      48.68462       48.710628      51.123628    
     34400   301.4807       0.0344         1.8609885     -0.035205918    0              254.68769      126.77222     -18609.885      48.7124        48.708871      51.128571    
     34500   301.98369      0.0345         1.9271105     -0.092394425    0             -569.40906     -345.69702     -19271.105      48.75072       48.676151      51.133514    
     34600   299.09017      0.0346         1.9539293     -0.10672773     0             -950.08804     -805.21246     -19539.293      48.717034      48.720476      51.138457    
     34700   304.96504      0.0347         1.9614307     -0.10103826     0             -893.10633     -1184.448      -19614.307      48.688751      48.766084      51.1434      
     34800   302.63514      0.0348         1.9582326     -0.082834723    0.0031981335  -1098.7202     -915.95887     -19582.326      48.750974      48.70813       51.148343    
     34900   301.57584      0.0349         2.0037651     -0.10828433     0             -1375.8655     -1104.8322     -20037.651      48.751917      48.693423      51.153285    
     35000   294.82495      0.035          1.9902569     -0.078815591    0.013508192   -485.20279     -1102.3901     -19902.569      48.682262      48.744499      51.158228    
     35100   299.08912      0.0351         1.945342      -0.018771597    0.058423058   -633.79912     -613.53077     -19453.42       48.722405      48.702832      51.163171    
     35200   303.50786      0.0352         1.9641308     -0.024116273    0.039634306   -784.11909     -565.9941      -19641.308      48.737335      48.669491      51.168114    
     35300   302.95116      0.0353         1.9784275     -0.024066126    0.025337567   -249.83813     -496.69616     -19784.275      48.690522      48.69291       51.173057    
     35400   301.31043      0.0354         1.9080602      0.051008386    0.095704915    206.27053      286.07732     -19080.602      48.692933      48.675626      51.178       
     35500   296.41328      0.0355         1.8832464      0.071435732    0.12051867     607.40507      1024.0551     -18832.464      48.724051      48.61642       51.182942    
     35600   294.44107      0.0356         1.8894766      0.058760266    0.11428847     1070.0916      994.00404     -18894.766      48.665766      48.643201      51.187885    
     35700   298.40684      0.0357         1.8609358      0.077251547    0.14282924     1245.3923      830.75281     -18609.358      48.626006      48.687035      51.192828    
     35800   304.93969      0.0358         1.9140093      0.019755786    0.089755807    833.84643      1081.0472     -19140.093      48.700537      48.623622      51.197771    
     35900   302.11177      0.0359         1.920528       0.0049133808   0.083237113    708.45699      774 -0.024116273    0.039634306   -784.11909     -565.9941      -19641.308      48.737335      48.669491      51.168114    
     35300   302.95116      0.0353         1.9784275     -0.024066126    0.025337567   -249.83813     -496.69616     -19784.275      48.690522      48.69291       51.173057    
     35400   301.31043      0.0354         1.9080602      0.051008386    0.095704915    206.27053      286.07732     -19080.602      48.692933      48.675626      51.178       
     35500   296.41328      0.0355         1.8832464      0.071435732    0.12051867     607.40507      1024.0551     -18832.464      48.724051      48.61642       51.182942    
     35600   294.44107      0.0356         1.8894766      0.058760266    0.11428847     1070.0916      994.00404     -18894.766      48.665766      48.643201      51.187885    
     35700   298.40684      0.0357         1.8609358      0.077251547    0.14282924     1245.3923      830.75281   .227428    
     36500   296.92991      0.0365         1.9721065     -0.029055452    0.031658617    53.827336      113.04679     -19721.065      48.694098      48.652431      51.232371    
     36600   300.45538      0.0366         2.0139315     -0.058434977    0             -367.2326       256.24198     -20139.315      48.738715      48.599219      51.237313    
     36700   294.90928      0.0367         2.000484      -0.031032688    0.013447472    367.24395     -14.559174     -20004.84       48.606868      48.717046      51.242256    
     36800   303.78404      0.0368         2.0033124     -0.024930736    0.010619116    266.489       -388.77398     -20033.124      48.594605      48.741036      51.247199    
     36900   300.38017      0.0369         2.0193249     -0.031063551    0             -277.43347      367.13665     -20193.249      48.742138      48.577495      51.252142    
     37000   299.43852      0.037          2.0388224     -0.041515096    0             -312.53639     -77.318601     -20388.224      48.705355      48.616148      51.257085    
     37100   304.58811      0.0371         2.0660314     -0.059242997    0             -209.03296     -739.37228     -20660.314      48.625057      48.720858      51.262028    
     37200   298.98331      0.0372         2.096706      -0.078747985    0             -360.60391     -545.36056     -20967.06       48.665342      48.67232       51.26697     
     37300   295.96719      0.0373         2.0582051     -0.032117746    0.038500964   -374.94878     -8.820003      -20582.051      48.712643      48.615546      51.271913    
     37400   301.23198      0.0374         2.0486615     -0.016902934    0.048044537   -468.27394     -87.506858     -20486.615      48.674508      48.665719      51.276856    
     37500   296.54668      0.0375         2.0436252     -0.0047147931   0.053080802   -68.664136     -271.49255     -20436.252      48.588005      48.728534      51.281799    
     37600   299.1357       0.0376         2.0877188     -0.041429603    0.008987264   -621.40353     -308.38052     -20877.188      48.685509      48.635799      51.286742    
     37700   308.0223       0.0377         2.1681216     -0.10506868     0             -1452.4359     -770.87379     -21681.216      48.725112      48.621165      51.291685    
     37800   303.41398      0.0378         2.1620502     -0.083123515    0.0060713769  -586.63909     -1206.1731     -21620.502      48.581872      48.759689      51.296627    
     37900   295.68787      0.0379         2.1301162     -0.040110382    0.038005375   -350.38817     -869.19953     -21301.162      48.618141      48.701548      51.30157     
     38000   298.36091      0.038          2.1203613     -0.022201598    0.047760265   -911.65647     -169.51637     -21203.613      48.734759      48.590344      51.306513    
[...]
     83800   301.17448      0.0838         4.8236756     -0.036569431    0             -627.2292      -912.22423     -48236.756      47.883184      48.104177      53.570326    
     83900   298.77284      0.0839         4.860937      -0.0656818      0             -840.49651     -800.31328     -48609.37       47.898754      48.086994      53.575269    
     84000   300.01934      0.084          4.8333031     -0.032741979    0.02763391    -687.979       -732.03321     -48333.031      47.913837      48.076425      53.580212    
     84100   299.14434      0.0841         4.8319083     -0.028312144    0.02902868    -552.16991     -504.8032      -48319.083      47.922499      48.056435      53.585155    
     84200   300.6919       0.0842         4.8597228     -0.048669051    0.0012141843  -745.82682     -769.58674     -48597.228      47.922534      48.060465      53.590098    
     84300   298.04277      0.0843         4.8588084     -0.037410907    0.0021285919  -864.99352     -908.40301     -48588.084      47.92171       48.065301      53.59504     
     84400   295.8278       0.0844         4.8739743     -0.040863656    0             -1184.7571     -909.48351     -48739.743      47.995539      47.997725      53.599983    
     84500   298.32788      0.0845         4.8803269     -0.03660384     0             -1209.5431   56     -0.036569431    0             -627.2292      -912.22423     -48236.756      47.883184      48.104177      53.570326    
     83900   298.77284      0.0839         4.860937      -0.0656818      0             -840.49651     -800.31328     -48609.37       47.898754      48.086994      53.575269    
     84000   300.01934      0.084          4.8333031     -0.032741979    0.02763391    -687.979       -732.03321     -48333.031      47.913837      48.076425      53.580212    
     84100   299.14434      0.0841         4.8319083     -0.028312144    0.02902868    -552.16991     -504.8032      -48319.083      47.922499      48.056435      53.585155    
     84200   300.6919       0.0842         4.8597228     -0.048669051    0.0012141843  -745.82682     -769.58674     -48597.228      47.922534      48.060465      53.590098    
     84300   298.04277      0.0843         4.8588084     -0.037410907    0.0021285919  -864.99352     -908.40    53.62964     
     85100   297.80834      0.0851         4.8480953      0.030305216    0.067926617    193.65962      495.09732     -48480.953      48.038083      47.869989      53.634583    
     85200   303.24153      0.0852         4.8613421      0.017220375    0.054679845    15.865872     -134.40628     -48613.421      47.942549      47.982449      53.639526    
     85300   302.71794      0.0853         4.8852442     -0.0040381903   0.030777694   -134.58884     -48.15368      -48852.442      47.859174      48.072106      53.644469    
     85400   301.53858      0.0854         4.913362      -0.028217198    0.0026599134   90.990612     -160.52605     -49133.62       47.790438      48.115332      53.649412    
     85500   302.50584      0.0855         4.8565438      0.026222731    0.05947816     329.31515     -129.02233     -48565.438      47.798317      48.106974      53.654354    
     85600   297.17401      0.0856         4.8431856      0.034258671    0.07283627     573.28623      290.38827     -48431.856      47.984641      47.914774      53.659297    
     85700   302.16591      0.0857         4.8725946      0.00050699352  0.043427325   -34.156697      304.32278     -48725.946      48.259543      47.641631      53.66424     
     85800   295.58608      0.0858         4.872572      -0.0027224398   0.043449942    422.99439      743.86911     -48725.72       48.368904      47.509365      53.669183    
     85900   295.33463      0.0859         4.8307213      0.035205515    0.08530067     477.41428      861.72675     -48307.213      48.362065      47.527461      53.674126    
     86000   297.95345      0.086          4.8634128      0.0012945273   0.052609079    445.32186      751.98188     -48634.128      48.275546      47.611998      53.679068    
     86100   297.64175      0.0861         4.893534      -0.024282786    0.022487893    109.32526      327.30783     -48935.34       48.158381      47.719572      53.684011    
     86200   302.37774      0.0862         4.9301824     -0.054047171    0             -17.425232     -25.28579      -49301.824      48.01386       47.881215      53.688954    
     86300   300.74985      0.0863         4.9399758     -0.05836736     0              224.56734      135.19745     -49399.758      47.855478      48.034353      53.693897    
     86400   295.28141      0.0864         4.9127263     -0.031181477    0.02724945     111.36675      351.43575     -49127.263      47.733707      48.13991       53.69884     
     86500   298.09434      0.0865         4.9256348     -0.037180865    0.014340953    77.306394      167.22218     -49256.348      47.644838      48.249557      53.703783    
     86600   301.58751      0.0866         4.9407639     -0.042552142    0              10.833013     -348.44963     -49407.639      47.568186      48.325995      53.708725    
     86700   296.03729      0.0867         4.9426712     -0.03745175     0              181.72398     -207.33694     -49426.712      47.573448      48.309305      53.713668    
     86800   302.90814      0.0868         4.9788878     -0.063036706    0             -161.75466     -309.80885     -49788.8022487893    109.32526      327.30783     -48935.34       48.158381      47.719572      53.684011    
     86200   302.37774      0.0862         4.9301824     -0.054047171    0             -17.425232     -25.28579      -49301.824      48.01386       47.881215      53.688954    
     86300   300.74985      0.0863         4.9399758     -0.05836736     0              224.56734      135.19745     -49399.758      47.855478      48.034353      53.693897    
     86400   295.28141      0.0864         4.9127263     -0.031181477    0.02724945     111.36675      351.43575     -49127.263      47.733707      48.13991       53.69884     
     86500   298.09434      0.0865         4.9256348     -0.037180865    0.014340953    77.306394      167.22218     -49256.348      47.644838      48.249557      53.703783    
     86600   301.58751      0.0866         4.9407639     -0.042552142    0              10.833013     -348.44963     -49407.639      4400   298.93975      0.0874         4.9333601      0.010587895    0.045527692    480.93837      777.5146      -49333.601      48.185572      47.656579      53.748268    
     87500   300.95409      0.0875         4.9947143     -0.043858369    0              297.15444      501.88738     -49947.143      48.11402       47.732423      53.753211    
     87600   299.57333      0.0876         4.9838441     -0.028680159    0.010870198    98.301412      110.82871     -49838.441      47.984829      47.859379      53.758154    
     87700   300.70228      0.0877         4.9839887     -0.024693049    0.010725559   -61.228532     -165.58955     -49839.887      47.890685      47.971504      53.763096    
     87800   300.45505      0.0878         5.0084463     -0.046194781    0             -86.031856     -221.29331     -50084.463      47.852328      48.019261      53.768039    
     87900   297.93043      0.0879         5.0522571     -0.079152435    0             -635.42288     -487.49422     -50522.571      47.947424      47.923988      53.772982    
     88000   300.37056      0.088          5.0614658     -0.076662797    0             -944.69528     -699.50107     -50614.658      48.114414      47.777393      53.777925    
     88100   295.88024      0.0881         5.0198151     -0.027407908    0.041650705   -597.35112     -479.10116     -50198.151      48.254453      47.626494      53.782868    
     88200   298.48165      0.0882         5.0239008     -0.024556204    0.037564964   -604.45862     -163.58855     -50239.008      48.386339      47.481433      53.787811    
     88300   294.0469       0.0883         5.0293836     -0.020266018    0.032082176   -272.67625     -160.78988     -50293.836      48.467647      47.370873      53.792753    
     88400   297.72439      0.0884         4.9847974      0.029463913    0.076668374   -252.31693     -43.344357     -49847.974      48.543649      47.302335      53.797696    
     88500   301.77542      0.0885         4.9859257      0.027456708    0.075540023   -72.257627      90.442931     -49859.257      48.531497      47.308212      53.802639    
     88600   299.66981      0.0886         5.0242782     -0.0068523039   0.037187601    103.85467      58.271553     -50242.782      48.474835      47.340848      53.807582    
     88700   296.65946      0.0887         4.9588963      0.056020331    0.10256948     438.61567      309.36073     -49588.963      48.418989      47.38182       53.812525    
     88800   306.90055      0.0888         5.0030929      0.011288399    0.058372889    268.52972      175.14714     -50030.929      48.373095      47.43483       53.817468    
     88900   297.6543       0.0889         4.932416       0.069981145    0.12904974     628.56898      790.3122      -49324.16       48.30965       47.475823      53.82241     
     89000   297.6352       0.089          4.9564419      0.035452871    0.10502385     883.2472       753.57627     -49564.419      48.279107      47.48754       53.827353    
     89100   300.1458       0.0891         4.9133156      0.067929245    0.14815017     1098.658       886.17549     -49133.156      48.353402      47  -43.344357     -49847.974      48.543649      47.302335      53.797696    
     88500   301.77542      0.0885         4.9859257      0.027456708    0.075540023   -72.257627      90.442931     -49859.257      48.531497      47.308212      53.802639    
     88600   299.66981      0.0886         5.0242782     -0.0068523039   0.037187601    103.85467      58.271553     -50242.782      48.474835      47.340848      53.807582    
     88700   296.65946      0.0887         4.9588963      0.056020331    0.10256948     438.61567      309.36073     -49588.963      48.418989      47.38182       53.812525    
     88800   306.90055      0.0888         5.0030929      0.011288399    0.058372889    268.52972      175.14714     -50030.929      48.373095      47.43483       53.817468    
     88900   297.6543       0.0889         4.932416       0.069981145    0.12904974     628.56898      790.3122      -49324.16       48.30965       47.475823  97         4.9768348     -0.042063387    0.084630987    567.71071      341.09876     -49768.348      48.479269      47.292538      53.861953    
     89800   302.65088      0.0898         4.9966501     -0.062522993    0.064815658    401.96305      255.05854     -49966.501      48.418238      47.367554      53.866896    
     89900   298.30061      0.0899         5.0178092     -0.075142734    0.043656603    383.93696      253.97329     -50178.092      48.35499       47.418647      53.871839    
     90000   293.90954      0.09           5.067595      -0.11381328     0              339.24739      169.87306     -50675.95       48.272781      47.491436      53.876781    
     90100   295.19823      0.0901         5.029512      -0.064110642    0.038082993    672.01035      389.41718     -50295.12       48.186213      47.587026      53.881724    
     90200   304.78702      0.0902         5.0544687     -0.073107268    0.013126314    453.93623      296.31895     -50544.687      48.120864      47.656766      53.886667    
     90300   297.19356      0.0903         5.0309937     -0.036832512    0.036601281    630.63126      355.62382     -50309.937      48.052596      47.705809      53.89161     
     90400   301.05411      0.0904         5.0523936     -0.039986302    0.015201452    362.59001      500.06642     -50523.936      48.014419      47.74884       53.896553    
     90500   299.23286      0.0905         5.1069358     -0.075922581    0              132.43067      290.72808     -51069.358      47.959455      47.80767       53.901496    
     90600   296.66676      0.0906         5.0998172     -0.056516215    0.0071185884   155.27306     -35.124242     -50998.172      47.916676      47.854463      53.906438    
     90700   298.56205      0.0907         5.1309527     -0.072239929    0             -136.31745     -259.1346      -51309.527      47.951389      47.840625      53.911381    
     90800   300.84718      0.0908         5.109326      -0.039345627    0.02162671    -68.731047     -262.66428     -51093.26       48.008416      47.782184      53.916324    
     90900   300.71066      0.0909         5.1677453     -0.082771295    0             -399.47339     -594.78387     -51677.453      48.086501      47.697391      53.921267    
     91000   300.04801      0.091          5.1905338     -0.09326587     0             -465.97155     -572.97506     -51905.338      48.179047      47.61423       53.92621     
     91100   304.53789      0.0911         5.1553002     -0.045453512    0.035233539   -949.17568     -956.3932      -51553.002      48.275755      47.535353      53.931153    
     91200   299.24582      0.0912         5.1461463     -0.027131818    0.044387474   -986.98862     -815.83133     -51461.463      48.347596      47.456447      53.936095    
     91300   293.89485      0.0913         5.1314075     -0.0023516402   0.059126277   -709.57065     -721.19873     -51314.075      48.397017      47.394163      53.941038    
     91400   301.01676      0.0914         5.1228842      0.013220666    0.067649515   -635.79469     -943.55542     -51228.842      48.445603      47.354125      53.945981   27      47.951389      47.840625      53.911381    
     90800   300.84718      0.0908         5.109326      -0.039345627    0.02162671    -68.731047     -262.66428     -51093.26       48.008416      47.782184      53.916324    
     90900   300.71066      0.0909         5.1677453     -0.082771295    0             -399.47339     -594.78387     -51677.453      48.086501      47.697391      53.921267    
     91000   300.04801      0.091          5.1905338     -0.09326587     0             -465.97155     -572.97506     -51905.338      48.179047      47.61423       53.92621     
     91100   304.53789      0.0911         5.1553002     -0.045453512    0.035233539   -949.17568     -956.3932      -51553.002      48.275755      47.535353      53.931153    
     91200   299.24582      0.0912         5.1461463     -0.027131818    0.044387474   -986.98862     -815.83133     -51461.463      48.347596      47.456447      53.936095    
     91 0.11132351     0.19795813     180.48775      480.87571     -49925.756      49.079114      46.640918      53.975638    
     92100   302.54613      0.0921         4.944355       0.13844957     0.24617871     500.9955       226.83675     -49443.55       49.207763      46.515747      53.980581    
     92200   300.95053      0.0922         4.9161578      0.14364794     0.27437592     611.86871      350.93293     -49161.578      49.337816      46.366414      53.985524    
     92300   298.19274      0.0923         4.8651689      0.16801306     0.32536491     482.63456      234.78939     -48651.689      49.53277       46.168849      53.990466    
     92400   303.24266      0.0924         4.7339043      0.26037966     0.4566295      256.11833      53.503691     -47339.043      49.743217      45.963665      53.995409    
     92500   297.3685       0.0925         4.7020137      0.25242374     0.48852006     442.06658      49.823631     -47020.137      49.896571      45.803271      54.000352    
     92600   300.05257      0.0926         4.5611722      0.33659741     0.62936159     510.85558      478.03737     -45611.722      50.050537      45.620967      54.005295    
     92700   301.14231      0.0927         4.4351594      0.39465056     0.75537435     609.72334      548.50304     -44351.594      50.241814      45.420829      54.010238    
     92800   304.41342      0.0928         4.2678902      0.47991423     0.92264361     753.17257      518.18955     -42678.902      50.459603      45.191526      54.015181    
     92900   305.35485      0.0929         4.073801       0.57541878     1.1167327      605.75824      340.50945     -40738.01       50.705444      44.947284      54.020123    
     93000   300.12614      0.093          3.9684949      0.5783168      1.2220388      435.69477      62.031376     -39684.949      50.935988      44.710839      54.025066    
     93100   294.15886      0.0931         3.8400594      0.59632279     1.3504744      257.19952      209.88007     -38400.594      51.101701      44.542352      54.030009    
     93200   303.97049      0.0932         3.7959048      0.52845206     1.394629      -143.54131     -89.776691     -37959.048      51.175235      44.479174      54.034952    
     93300   300.737        0.0933         3.6833794      0.5227985      1.5071543      580.63149     -47.322613     -36833.794      51.221215      44.397482      54.039895    
     93400   299.15452      0.0934         3.4885844      0.59306156     1.7019494      611.81393     -17.049355     -34885.844      51.432079      44.175089      54.044837    
Fix halt condition for fix-id halt_peak_fix met on step 93500 with value 1
     93500   305.72135      0.0935         3.1434752      0.78231692     2.0470586     -213.24587     -120.46389     -31434.752      51.756389      43.867252      54.04978     
Loop time of 70.6161 on 1 procs for 93500 steps with 6912 atoms

Performance: 228.798 ns/day, 0.105 hours/ns, 1324.060 timesteps/s, 9.152 Matom-step/s
99.4% CPU use with 1 MPI tasks x 1 OpenMP threads

MPI task timing breakdown:
Section |  min time  |  avg time  |  max time  |%varavg| %total
---------------------------------------------------------------
Pair    | 34.694     | 34.694     | 34.694     |   0.0 | 49.13
Neigh   | 0.026783   | 0.026783   | 0.026783   |   0.0 |  0.04
Comm    | 2.6722     | 2.6722     | 2.6722     |   0.0 |  3.78
Output  | 12.074     | 12.074     | 12.074     |   0.0 | 17.10
Modify  | 19.625     | 19.625     | 19.625     |   0.0 | 27.79
Other   |            | 1.524      |            |       |  2.16

Nlocal:           6912 ave        6912 max        6912 min
Histogram: 1 0 0 0 0 0 0 0 0 0
Nghost:           8822 ave        8822 max        8822 min
Histogram: 1 0 0 0 0 0 0 0 0 0
Neighs:              0 ave           0 max           0 min
Histogram: 1 0 0 0 0 0 0 0 0 0
FullNghs:       702881 ave      702881 max      702881 min
Histogram: 1 0 0 0 0 0 0 0 0 0

Total # of neighbors = 702881
Ave neighs/atom = 101.68996
Neighbor list builds = 151
Dangerous builds = 0


---------------------------------------------------------------------
      Device Time Info (average): 
---------------------------------------------------------------------
Data Transfer:   11.9597 s.
Neighbor copy:   0.0029 s.
Neighbor build:  0.0123 s.
Force calc:      14.1480 s.
Device Overhead: 1.9747 s.
CPU Neighbor:    0.0209 s.
CPU Cast/Pack:   6.6497 s.
CPU Driver_Time: 1.6750 s.
CPU Idle_Time:   18.5685 s.
Average split:   1.0000.
Max Mem / Proc:  11.04 MB.
Prefetch mode:   None.
Vector width:    32.
Lanes / atom:    4.
Pair block:      256.
Neigh block:     128.
Neigh mode:      Hybrid (binning on host) with subgroup support.
Neigh sorting:   Unavailable or disabled.
---------------------------------------------------------------------

Total wall time: 0:01:12
      |            |       |  2.16

Nlocal:           6912 ave        6912 max        6912 min
Histogram: 1 0 0 0 0 0 0 0 0 0
Nghost:           8822 ave        8822 max        8822 min
Histogram: 1 0 0 0 0 0 0 0 0 0
Neighs:              0 ave           0 max           0 min
Histogram: 1 0 0 0 0 0 0 0 0 0
FullNghs:       702881 ave      702881 max      702881 min
Histogram: 1 0 0 0 0 0 0 0 0 0

Total # of neighbors = 702881
Ave neighs/atom = 101.68996
Neighbor list builds = 151
Dangerous builds = 0
Total wall time: 0:01:12
