(written by ASE)

32814 atoms
2 atom types

0.0      61.060000000000002  xlo xhi
0.0      60.701581630959176  ylo yhi
0.0      125.19494428997388  zlo zhi

Atoms # atomic

     1   1      1.9971999225590398      1.4986782342000533       64.50171370573571
     2   1    0.017548534506800335   -0.033998356534255508      65.921435961749353
     3   1      1.9321285299521498      1.3900364397286946      67.322889064601469
     4   1   0.0011534962414542838 -0.00058119133374456074      68.832717097939721
     5   1      2.0248457408662666       1.507137151243485      70.216762918758519
     6   1    0.055120702756711284    0.051597931762351237      71.707504062508661
     7   1      2.0862926070619641      1.4710237444340379      73.075892007452438
     8   1   0.0014959581673333112    0.070646188069391061      74.461601856443949
     9   1      2.0509348378357299      1.4071435104643109      76.024275133438152
    10   1    -0.02961893723131763   -0.042324847622021572      77.317753946654619
    11   1      2.0535624770904159      1.4328480102273096      78.840971770273228
    12   1   -0.038491583139357306    -0.08025219642912261      80.277408912599057
    13   1      1.9880797468084614      1.3827801528476169      81.697150898733128
    14   1    0.091056565627439912   -0.056408488573660598      83.150528472960943
    15   1      2.0870467732807558      1.3900480723157524      84.527916499456182
    16   1    0.048867793041815252   -0.051056286424381536      85.984137195748971
    17   1        2.02687341902165      1.3589404207713371      87.368591091764799
    18   1   0.0064515624107955418    -0.08779594078080985       88.78564753119241
    19   1      2.0111119659019838      1.3610596244989044      90.309677130506429
    20   1    0.037978453296041569    0.082878646581483043      91.661129386823532
    21   1      2.0444541009025317       1.534271622814531      93.088632051633851
    22   1   -0.031094418190871873    0.041033940820568805      94.528780615252813
    23   1      2.0486196358708701       1.494587373684646      96.116308766796521
    24   1    0.030244312520647593    0.025103244836406143      97.414415985020099
    25   1      2.0881788618513899      1.4560484660840167      98.861743991334606
    26   1    0.016519838394506693   -0.045978912360024507      100.33961770520661
    27   1      1.9939537599104624      1.4390991985481139      101.76344285716854
    28   1    0.021017980450744989    -0.03702793982069754      103.19629774692352
    29   1      2.1096294438271554       1.464897643512675      104.56051202133969
    30   1    0.022710694426110969   -0.012831869689526865      105.91881585480475
    31   1      2.1304488023991746      1.3941395220584545      107.53200267790999
    32   1   0.0091771527374885486   -0.077179401776525769      108.85422355463207
    33   1      2.1432270594682694      1.3994884366260478      110.24512771936085
    34   1   -0.038175045918512125   -0.046476623603758718       111.7249025135563
    35   1      2.1225960037141833      1.4157212451310501      113.24256281979955
    36   1   -0.015530378600942458    0.027016074809573944      114.52467727247355
    37   1      2.1772129074783462      1.4527592361526991       116.0629826050905
    38   1     0.01819824132844294   0.0023892893000835047      117.55388929735311
    39   1        2.08633929841448      1.3965851547380148      118.94917926129067
    40   1    -0.10761670192611679   0.0047142268651872163      120.36821462492254
    41   1      1.9918938666843415      1.3448746140888321      121.88791484377705
    42   1   -0.055593815267299763   -0.016901926394243476        123.248597483686
    43   1      2.0730182485267625      4.3546868124704066      64.496228331439212
    44   1    0.061146445656354013      2.9246074506535766      65.907406056451663
    45   1       2.057769841419069      4.3877218585123314      67.294413346882379
    46   1  -0.0029563548286463885      2.8321788995257795      68.791950888534402
    47   1      2.0435023960955152      4.4222935440741962      70.207368036561178
    48   1   -0.014667371000684451      2.7962471966364451      71.642581929153295
    49   1      2.1162326176615252      4.2882820483181998      73.109029231171078
    50   1   -0.025148203728656643      2.8340940523236169      74.551902520985607
    51   1      1.9905781912157168      4.3693471966672535      76.075230049794229
    52   1    0.036303171887884872      2.8143170544270832      77.343540758326057
    53   1      2.0222352573695273      4.4020829946933766      78.788792392245625
    54   1   -0.093076105393097935      2.9819266446716886       80.16915972191623
    55   1      2.0674557809805059       4.337882301118281       81.66934730833303
    56   1   -0.067175026146565439      2.8765465258374148      83.120732964042205
    57   1      1.9768133773767238       4.369499012016159       84.50500477346155
    58   1   -0.051829501052475691      2.8833282749578579      86.059009345176506
    59   1      1.9903142220950354      4.3018948257105247      87.464371679590144
    60   1    -0.10415687610426348      2.8556062529741046      88.821932509854804
    61   1       2.091306112106937      4.2668994031734835      90.218138392519677
    62   1   -0.062970110846000613      2.9019650198958269      91.808862232292455
    63   1      2.0715448614316778      4.3180589663765474       93.17827438398777
    64   1    0.014351303890502615      2.8759795358267053      94.590209107522696
    65   1      2.0181843007959248      4.3148379171562778      95.949686135485209
    66   1   -0.081357772061203787      2.9151687483269462      97.518265749108807
    67   1      1.9890136616638154      4.3079970475701579      98.948020490067321
    68   1   -0.021090871890310069      2.8316437823567018      100.31085295125216
    69   1      2.0241150687838809      4.2555223659065113      101.65937811667543
    70   1    0.049631053900363389      2.8809832385185858      103.18953046418362
    71   1      2.0623452976494119      4.2928988701182655      104.58298003144802
    72   1   -0.087372590444872195      2.8864141237334691      106.02253696291632
    73   1      1.9946946427517858      4.4002225025606521      107.45692983426811
    74   1   -0.060248933850828738       2.960833246119388      108.81906996824675
    75   1      1.9401312622444185      4.3461842139682814      110.35996974614331
    76   1    0.057071317915060253       2.920752250085902      111.71066567088008
    77   1      1.9832853904930432      4.3329555461184679      113.22034038615571
    78   1   -0.015097587658288572      2.8858087403533874      114.59890501010069
    79   1      2.0694588571014401      4.2931288037030688       115.9597658856263
    80   1   -0.019444094479507134      2.8815901021234072      117.45866586370326
    81   1      2.0735260776273488      4.4290318648419005      118.92920058416243
    82   1   -0.018001696563094451      2.9492988954626083      120.35357317613111
    83   1      2.0034104095073433      4.2899062530180769      121.77425479850862
    84   1     0.10464915459034832      2.8895284567330042       123.1671261846609
    85   1       2.030973689708889      7.2026756464685349      64.519666153548471
    86   1   -0.036842071592979954      5.7116705401360957      66.028944830321663
    87   1       1.992040998272292       7.266060949838816      67.297341426366586
    88   1   -0.021765117489082303      5.6904027879953878      68.768898463751626
    89   1      1.9841231215166961      7.3054806353992916      70.211807431033947
    90   1  -0.0003702030892514014      5.8157078618283684      71.649243681777989
    91   1      2.0744775031577802      7.2447214849848063      73.053510145617054
    92   1   -0.017487305153065437        5.82347917070493      74.405746287642515
    93   1      2.0508409669868115      7.1460272434584935      75.943899539571248
    94   1   -0.035272932477293233      5.7512068691456752      77.449778739359544
    95   1      1.9911984416514497      7.1731864083573313      78.774686501998374
    96   1   0.0088030889693580024      5.7866376404694124      80.293883322805087
    97   1      1.9383592860132777      7.2689204315937106      81.688111410057445
    98   1    0.026351631575223418      5.7488280941452006      83.155265354234061
    99   1      2.0488556886074289      7.2191432814676544      84.542548536106125
   100   1   0.0032999176043597075       5.803605879406879      85.949265157836948
   101   1      2.0460203848310239      7.2229404293048329      87.407754949429716
   102   1   -0.042182634328069443      5.7609717668260725      88.854111293928696
   103   1      1.9752860012735443      7.2021300659364309      90.192558632486779
   104   1     -0.0187155445995652      5.7779675063088867      91.772159904822061
   105   1      2.0501700443429796      7.1853376093191192       93.15847643642276
   106   1   -0.052712335332789774      5.7769718696447061      94.541233832712294
   107   1      2.0600000474139377      7.2210855095371889      96.011012719899171
   108   1     -0.0436836626522401      5.8013365230411296      97.493157623570013
   109   1      2.0502444762133938      7.1060814318226093      98.941936193534545
   110   1   -0.020598894501073196      5.7811159701568151      100.35334550044166
   111   1      2.0600057867453376      7.2693824273397336      101.73081890048866
   112   1   -0.030510126529980003      5.7887603441451194      103.20505705098545
   113   1      2.1113315634898449      7.2316956337684104      104.58692885979431
   114   1   0.0029321856749637888      5.7346650638105654      105.99910628803383
   115   1        2.03656860574621      7.1811381678865702      107.47170926057068
   116   1   0.0036100817387587007       5.725227224151757      108.88951323795325
   117   1       2.073990879342118      7.1689113737094381      110.34724118452885
   118   1     0.05286090128872805      5.7881943901154873       111.7545789546445
   119   1      2.0436868577952767      7.2859594159305301      113.10782035774704
   120   1   -0.017744043302085344      5.7904495340195457      114.60944599244939
   121   1      2.0903782851017363      7.2482305466073571      115.98884871115344
   122   1    0.029857337907823352      5.8374696389972884      117.50694976129772
   123   1      2.0052277846745681      7.2478216055256626      118.98755044056166
   124   1    0.044288582322566439      5.8065517582336694      120.30245455169113
   125   1      2.0851276943699015      7.2176497964992032      121.74342358464452
   126   1    0.071193916881787264      5.7932760858588939      123.19238446414656
   127   1      2.0740277173519508      10.109911449307122      64.465175034930141
   128   1   0.0069364154599325439       8.787469224192737      65.876250026419157
   129   1      1.9821073384535348      10.107927466504981      67.429469351324059
   130   1   -0.093030569794844378      8.6279159788493303      68.763326641942001
   131   1      2.0171047940638522       10.19352616193158       70.13855898971596
   132   1   -0.016421003273787579      8.6227717060142037      71.602654331211411
   133   1      2.0907748845943006      10.164989177203431      73.023748306003611
   134   1   -0.077184894387407221      8.7410416189660278      74.475121036852684
   135   1      1.9944744230295168      10.170149967589726      75.966539041516199
   136   1   -0.057916751442095717      8.6308143834303941      77.342244290307704
   137   1      2.0821408004647384      10.128395386564126      78.786451370392939
   138   1   -0.030222788304812565      8.6156853279770385      80.258138108918445
   139   1      2.0147878475063279      10.128631487217694      81.677734644710625
   140   1     0.11896359457049382      8.6853197606945596      83.061531597362134
   141   1      2.0363742470451842       10.08544448547697      84.620006313559529
   142   1   -0.081782606285860218      8.6652772144534129      85.967924520389744
   143   1      2.0706080921014252      10.101265352140025      87.365375216993868
   144   1   0.0030203875911950446      8.5847074697743224      88.914205429128231
   145   1      2.0827282271583352      10.109622361234457      90.195657035274166
   146   1  -0.0072817218415185394      8.6379032659551207      91.660435099772897
   147   1      1.9850547026638621      10.110562826914173      93.171205135543687
   148   1   -0.048290602082528084       8.796478126445578       94.63678064527403
   149   1      2.0771551947022617      10.200277969619499      95.978939691694862
   150   1   -0.011966577346445318      8.5575388421279293      97.444409354214272
   151   1      2.0350553083827374      10.144498464378993      98.887703133504772
   152   1  -0.0019411758298585914      8.6725766031770863      100.30153096784352
   153   1      2.0693542015193658      10.100266918286792      101.63009299333069
   154   1    0.013500845368218786       8.640296901557889      103.12890685053277
   155   1      2.0350043111570613       10.14540857196234      104.65084835800538
   156   1    0.023595468751961241      8.6735267840851087        105.964555632201
   157   1       2.023823049750666      10.143522358108655      107.43651933265321
   158   1    0.032236118283238475      8.7108324790113869      108.89741720569194
   159   1      2.0358103517862043      10.156563395506357      110.29726781737558
   160   1   -0.085456230356304647      8.6423510614939438      111.71299747203788
   161   1      2.0074480997324309      10.134805986843956      113.17067295766445
   162   1       0.085905382158405      8.6051464761852507      114.64767291407817
   163   1      2.0788429310565171       10.17581422033204      116.06084478606267
   164   1   -0.060671022779108033      8.7063699667782171      117.49907397538898
   165   1      2.0480920441507413      10.107241828876143      118.87615560488004
   166   1   -0.043692445266599239      8.7375356070593391      120.37559646687482
   167   1      2.0051863455073096      10.121670946685258      121.77301787276498
   168   1   0.0066826282859469279      8.6571376867454042      123.10955804487176
   169   1      2.0050452414440127      12.914392533259957      64.440149747655781
   170   1   -0.016532216069673266      11.546983587935447      65.953130434742405
   171   1      2.0136915242920632      13.086577832529724      67.385081253147391
   172   1   -0.071556069754793505      11.618149210470165      68.817237250116335
   173   1      2.0446050897732984      13.079475283324877       70.18859899749468
   174   1   -0.021201867336352896      11.521913794102183       71.58550521713515
   175   1      2.0488077843485888      13.063797146654402      73.009549028254654
   176   1    -0.03389811955914989      11.630864419030464      74.492407174748294
   177   1      2.0303455104707213      13.028450378274158      75.862784808899988
   178   1   0.0013039331519462646      11.590485819321902      77.336581024566513
   179   1       1.999432292214425      13.022564650872532      78.829465390029554
   180   1    -0.04040980311598083      11.504829985838658         80.277812424394
   181   1      2.0415896202567114       12.95802733623486      81.561869644270672
   182   1    0.035462755234194752      11.539254497066667      83.146615683757446
   183   1      2.0048377459043385      13.027839762372663      84.535621939895677
   184   1     0.01531619218964554      11.644950069638266      85.949602697516355
   185   1      2.0947222039823878      13.026628536853879      87.380585973518819
   186   1   -0.072657234548717142      11.504458570780589      88.860679033671943
   187   1      2.0551856792099565      13.085386115104633      90.298531807583018
   188   1   -0.050489055727255587      11.481209490052622      91.739366687304368
   189   1      2.0130439549978445      12.968252407725796      93.112611123436764
   190   1   -0.081716834798947577      11.645833530067181      94.520482269093336
   191   1      1.9942911201475972      12.997821189372056      95.977955734336589
   192   1    0.046446692215185437      11.526729896330224      97.529174822913944
   193   1      1.9956391106262741      13.001762455178014      98.835354582789847
   194   1      0.0856120099774976       11.54691342622989       100.2373344002587
   195   1      2.0617763099280602      13.051869108851465      101.77377450923154
   196   1   -0.058985818680180463      11.536080564528246      103.15528908155406
   197   1      2.0018666553041022      13.027749056571972       104.6306381665223
   198   1   -0.036283620827475618      11.673379219645328      106.02425988241664
   199   1      1.9813197590829383      12.954620870674665      107.40209515100008
   200   1  0.00096431611342322546      11.583767068615407      108.96020378296224
   201   1      1.9346104424296715      12.991026527365348      110.30951014392778
   202   1   -0.043921642234235697      11.591394188586349      111.75233360929315
   203   1      2.1087744347594879      12.995349107931331      113.20059286841223
   204   1   -0.057956752687791407      11.605521662911274       114.6603760101605
   205   1      2.0273768200406161      13.020966199091303      116.03345049456514
   206   1   0.0059053809412336865      11.652596470597729      117.41836947804499
   207   1      1.9691733224595618      13.037733641191236      118.96994326492829
   208   1    0.031303700942651842      11.531573010170854      120.25454326669688
   209   1      2.0309217556559487      13.008870126283021      121.67907654935142
   210   1  -0.0054592781379637842      11.581881209458892      123.25410517827795
   211   1      1.9676091825002946      15.866168249154438      64.530007676644146
   212   1   -0.018863249020351636      14.470061203835689      65.880760806099246
   213   1      2.0325287828136402      15.853753493220408      67.368225226514909
   214   1    0.034897461742124852      14.530194461320201      68.862668123032634
   215   1      2.1517968575121822       15.95453853736969      70.221776681899144
   216   1   -0.026087578328333718      14.458335809438449      71.591308030267058
   217   1       2.039182565205814      15.938731371793679      73.085365360082179
   218   1  -0.0019829635275575215      14.419793376777317      74.428054619160136
   219   1       2.080461957273477      15.906085822358778      75.859216393378333
   220   1     0.10125174087211802      14.413046609073792      77.331795011677798
   221   1      2.0160295189688062      15.901208320028028       78.83242720694335
   222   1    0.046214221396825433      14.469602899672484      80.300352200653705
   223   1      2.1241372806175027      15.902443004623928      81.680567603120053
   224   1   -0.080794106442207789       14.40242181715907      83.010571687667721
   225   1      2.1002411158156016      15.890811872956544      84.541292820108424
   226   1   -0.036859438027772605      14.371470581369193      85.882552795784818
   227   1      2.0033836131639111      15.843324787766901      87.423755286161594
   228   1    0.040912016862377297      14.445779394347005      88.871684019284388
   229   1      2.0038498241905445      15.889275456762569      90.276292709453486
   230   1    0.048017702183207833      14.465141878533339      91.667005599327851
   231   1      1.9995221666086245      15.830706767951332       93.10958435930128
   232   1   -0.018112036236219889      14.385556923133755      94.577450245899243
   233   1      2.0381030336875945      15.941226891882341      95.999946911437803
   234   1    0.029243885177556463      14.461600206608042       97.41899256193129
   235   1      1.9528237379958802      15.946917988015285      98.910110745906962
   236   1    0.050565385260673001      14.450091380363071       100.2223123289764
   237   1      1.9750452487026129      16.036054763884245       101.7256697149335
   238   1   0.0011433418533699671      14.471047403523775      103.06974173449254
   239   1      1.9596141544530248      15.933394035347709      104.53980917092659
   240   1     0.10992621450798182      14.499505867949644      106.01677373514424
   241   1       2.094013219806532      15.849326234091299      107.43135894278349
   242   1   -0.054339301103285415        14.4656956229532      108.82501340914186
   243   1      2.0568813022248378      15.976110200607421      110.25999831975891
   244   1   0.0048492677360691041      14.463466551721769      111.75138378682006
   245   1      2.0557281670931085      15.862694836705574      113.17608484952517
   246   1   -0.063166687647618167       14.43580611709339      114.62979686213977
   247   1      2.1105358704048589      15.873222636784693      116.06565419982489
   248   1    0.038686098991630807      14.397641918048571      117.36239471445533
   249   1       2.026418369461378      15.862656202747189      118.91598541593838
   250   1   -0.013400492750315927      14.447671590878825      120.35874121335685
   251   1      2.0749856528701089      15.921948235172264      121.77651635984373
   252   1  -0.0045703639171787739      14.452124502632774       123.2833297315633
   253   1      2.0820950390810342      18.831503421569735      64.502915709262027
   254   1    0.067223208591984621       17.37799483504887      66.029512071648867
   255   1      2.0073998842273371      18.833426938672691      67.309180880243403
   256   1   -0.017959495022680474      17.422846854571553      68.850185665812219
   257   1      2.0924724312221992      18.773006757620404      70.250973988009875
   258   1    -0.01620828618655807      17.329653398244847      71.641623725473764
   259   1      2.0295318896042134      18.828903285778747      73.019865508048269
   260   1    -0.14794792947870677      17.313583896641273      74.495911379237469
   261   1      1.9527419077971271      18.806693526423732      75.856414020659045
   262   1    -0.02110406624625084      17.347790741760239      77.374245360031637
   263   1      2.1086810746193239       18.75708877346117      78.857755783638169
   264   1   -0.062555124256221367      17.372910023701834      80.217793579279643
   265   1      2.0279507556035554      18.815431702385187      81.674061812753962
   266   1   -0.043168014259837725      17.325680179913647        83.1054950597632
   267   1      2.0483724489792121      18.727169015938781      84.561491204725414
   268   1   -0.044176625159282744      17.381917320016445      86.024451060429953
   269   1      2.1060883867666633      18.656886092857764      87.421361678448875
   270   1    0.056203507875776437      17.435819117803184      88.778188774579775
   271   1      2.0879580956388524      18.788964433195627      90.324751059359656
   272   1     0.07694386195078412      17.304120903234455      91.758530570194068
   273   1      2.0197468134165706       18.71609990102392      93.079386267429328
   274   1    0.039416986881771622       17.37795200508139      94.626095793350117
   275   1       2.056419538750899      18.839535160034725      96.062097499432468
   276   1   -0.019590296925875817      17.303583391734382      97.323119281867392
   277   1      2.0962394201660808      18.822617405107227      98.920072797217259
   278   1    0.071164255711034144      17.386951370620423      100.28157214878887
   279   1      2.0641816199487057      18.834948182315248      101.81284662788335
   280   1    0.083354244873098213      17.436895405287377      103.26469896197277
   281   1      1.9826593243306767      18.761741407077608      104.60856999998445
   282   1    0.011541342442471896      17.318326026724119      106.04125312481591
   283   1      2.0221626655232496      18.731454207531002      107.44297817949102
   284   1    0.038660822596970804       17.35971812391816      108.86936108498857
   285   1       2.027719047354819      18.769162796385007      110.32029468820711
   286   1   -0.043603006577920433      17.361249121441148      111.78287760764881
   287   1      2.1780071195243185      18.793177385028166      113.19446024703723
   288   1   0.0094723365634377978      17.372683272165027      114.57267761990175
   289   1      2.0973595150125237      18.862569629131031      116.01116968920557
   290   1    0.011926446627368666      17.408767016085978      117.43576060061731
   291   1      1.9687902217409168      18.772525665100076       118.8787765696749
   292   1    0.018982166705117272      17.361064781238476      120.37892284682907
   293   1      2.0185517685076575      18.831798972739364      121.76389707138685
   294   1    0.040701699120919983      17.256915389646728      123.21436667121166
   295   1      1.9583192264078815      21.769978114559141      64.430557898268034
   296   1   -0.050924983300329109      20.265022169754204      65.878506596647469
   297   1      2.1445980372580253      21.770842625303565      67.262178272488086
   298   1   -0.015118366782162301       20.27137148110539      68.740797217972656
   299   1       1.980327352535205      21.565314163354028      70.311804577225459
   300   1    0.043218868166069631      20.246641915742568      71.626830504778738
   301   1      2.0569562626372373      21.639974327874768      73.073388588148759
   302   1    0.013689346504343357      20.242659746547719      74.410746460690646
   303   1      2.0396823033254918       21.62170916168823      75.903637015470991
   304   1   -0.061649092522700233      20.125174844490775      77.353878225056746
   305   1      1.9748872510106545      21.623868852469727       78.82194183558893
   306   1     0.01445118408135547      20.210238606359805      80.201371333728744
   307   1      1.9965771427189611      21.564180585672307      81.685638019807669
   308   1   -0.044438810412744841      20.323725394446594       83.10486724500106
   309   1      2.0399758098794893      21.726669589788912      84.511848380940251
   310   1   -0.021977185075986335      20.287241400091109      86.019431799361314
   311   1      1.9787230407204299      21.769610458889428      87.363534375380524
   312   1   -0.074463328752767552       20.20082514645571      88.812502773285416
   313   1      2.0940731894746683      21.720239248925427      90.262611176800618
   314   1    0.044549585273047719       20.20297179406592      91.724898770320209
   315   1      2.0535128899992201      21.605532124060616      93.065047331178789
   316   1   -0.022950407368469511      20.284992907455152      94.478406775895849
   317   1      1.9540217294776963       21.58266360578838      96.034552273444135
   318   1   -0.011175374776627183       20.25462675722428      97.497615450536671
   319   1      2.1145616625533972      21.660874520889934      98.828923641315953
   320   1   -0.028662870007598956      20.220458762094282      100.29587194191363
   321   1      2.1151408041340445      21.576387397921145      101.71603981992715
   322   1    0.051949904549631068      20.238774149238836       103.1764816976842
   323   1      2.0946685332950579      21.681996518912037      104.54495974654793
   324   1   -0.054447158088262261      20.246942045854546      106.06631606094743
   325   1      2.0274368641529632      21.681122391086305      107.53633436424032
   326   1     0.01847230586320988      20.289080923511932       108.9532759188622
   327   1      2.0976066098152728      21.726390037297048      110.27431587215163
   328   1    -0.11435315399551511       20.28134018439021      111.77993728101214
   329   1      2.0099112493638205      21.641453438023756      113.14314653023891
   330   1  -0.0037104775375823708      20.309335617112353      114.71101415260797
   331   1      1.9867952031449179       21.69422645000741      116.08733560507113
   332   1    0.014809215869885154      20.197773439176011       117.4718466024437
   333   1      2.0391911640825735      21.743919274357445       118.9467435612559
   334   1   -0.049418820417025701      20.228638371574906      120.32690836597645
   335   1      2.0561675954564471       21.61460045685358      121.71503294512044
   336   1   -0.036942488653537942      20.192171770017264      123.14086797057779
   337   1      2.0265021265626268      24.576117483894702      64.522014837272195
   338   1   0.0051360579324809972      23.141311741989327      65.894846642689714
   339   1      2.0551279839663374      24.490466969667359      67.281903919110604
   340   1    0.032178176651404954      23.168561739019879      68.748461660546312
   341   1      2.0457465081204957      24.540401785329639      70.252768262948251
   342   1    -0.02220243905131334      23.153020636024682      71.604732423775815
   343   1      1.9966889107128714      24.602248319570808      73.120689295191511
   344   1    0.078481082350489451       23.19845325524475      74.438950298436254
   345   1      2.0323426252726167      24.658775405018918      75.947965859357851
   346   1     0.03135548005666855      23.170823226030794      77.472767661850042
   347   1      2.0679228206426057      24.598857813912879      78.720911809687792
   348   1    0.070391851317542484      23.071704807785483      80.276856749735131
   349   1      2.0116336267790693      24.507707962727704      81.751622000643479
   350   1    -0.10200065311337009      23.106141201216158      83.123830658601634
   351   1      1.9281761584337396      24.533576175992891       84.50564619458342
   352   1    0.038471168422788193      23.170092148886532      86.028123993883554
   353   1      1.9816761926120132      24.524547177133222      87.343033926536776
   354   1    0.063567453085355677      23.212296913776637      88.905395922518323
   355   1      1.9877234846411933        24.5824712281415      90.348843962296613
   356   1   -0.036504701928913252      23.128408490443483      91.679002381480956
   357   1      2.0277630528435302      24.630201870557119      93.120823021418261
   358   1    -0.01426971147832665        23.1133604701912      94.596441375759866
   359   1      2.0363449414287795      24.570687215664293      96.036163517711088