(written by ASE)

11200 atoms
1 atom types

0.0      51.123820279787395  xlo xhi
0.0      50.609999999999999  ylo yhi
0.0      51.123820279787395  zlo zhi

Atoms # atomic

     1   1      2.5561910139893693                       0 -2.0487956358494867e-16
     2   1      3.8342865209840538      1.8074999999999999      1.2780955069946847
     3   1                       0                       0                       0
     4   1      1.2780955069946844      1.8074999999999999      1.2780955069946844
     5   1 -2.0487956358494867e-16                       0      2.5561910139893693
     6   1      2.5561910139893693                       0      2.5561910139893693
     7   1      3.8342865209840538      1.8074999999999999      3.8342865209840538
     8   1      1.2780955069946847      1.8074999999999999      3.8342865209840538
     9   1      2.5561910139893693                       0      5.1123820279787386
    10   1      3.8342865209840542      1.8074999999999999      6.3904775349734226
    11   1  -9.574063543314236e-17                       0      5.1123820279787386
    12   1      1.2780955069946844      1.8074999999999999      6.3904775349734235
    13   1  7.8433651775317769e-17                       0      7.6685730419681075
    14   1      2.5561910139893693                       0      7.6685730419681075
    15   1      3.8342865209840542      1.8074999999999999      8.9466685489627924
    16   1      1.2780955069946847      1.8074999999999999      8.9466685489627924
    17   1      2.5561910139893689                       0      10.224764055957476
    18   1      3.8342865209840538      1.8074999999999999      11.502859562952162
    19   1 -1.9148127086628472e-16                       0      10.224764055957477
    20   1      1.2780955069946838      1.8074999999999999       11.50285956295216
    21   1 -1.0894331769813972e-15                       0      12.780955069946845
    22   1      2.5561910139893689                       0      12.780955069946847
    23   1      3.8342865209840529      1.8074999999999999       14.05905057694153
    24   1      1.2780955069946842      1.8074999999999999      14.059050576941532
    25   1      2.5561910139893689                       0      15.337146083936215
    26   1      3.8342865209840542      1.8074999999999999        16.6152415909309
    27   1  1.5686730355063554e-16                       0      15.337146083936215
    28   1      1.2780955069946842      1.8074999999999999        16.6152415909309
    29   1 -7.4108460256447692e-16                       0      17.893337097925585
    30   1      2.5561910139893693                       0      17.893337097925585
    31   1      3.8342865209840546      1.8074999999999999       19.17143260492027
    32   1      1.2780955069946844      1.8074999999999999       19.17143260492027
    33   1      2.5561910139893698                       0      20.449528111914955
    34   1      3.8342865209840551      1.8074999999999999      21.727623618909639
    35   1 -3.8296254173256944e-16                       0      20.449528111914955
    36   1      1.2780955069946849      1.8074999999999999      21.727623618909639
    37   1 -2.4840480900661958e-17                       0      23.005719125904324
    38   1      2.5561910139893702                       0      23.005719125904324
    39   1      3.8342865209840529      1.8074999999999999      24.283814632899006
    40   1      1.2780955069946853      1.8074999999999999      24.283814632899009
    41   1      2.5561910139893707                       0      25.561910139893694
    42   1      3.8342865209840555      1.8074999999999999      26.840005646888379
    43   1  3.3328157993124552e-16                       0      25.561910139893694
    44   1      1.2780955069946855      1.8074999999999999      26.840005646888379
    45   1    6.91403640763153e-16                       0      28.118101153883064
    46   1      2.5561910139893707                       0      28.118101153883064
    47   1      3.8342865209840538      1.8074999999999999      29.396196660877749
    48   1       1.278095506994686      1.8074999999999999      29.396196660877749
    49   1      2.5561910139893707                       0       30.67429216787243
    50   1      3.8342865209840533      1.8074999999999999      31.952387674867115
    51   1  3.1373460710127107e-16                       0       30.67429216787243
    52   1      1.2780955069946855      1.8074999999999999      31.952387674867115
    53   1  6.7185666793317855e-16                       0        33.2304831818618
    54   1      2.5561910139893684                       0        33.2304831818618
    55   1      3.8342865209840533      1.8074999999999999      34.508578688856481
    56   1      1.2780955069946833      1.8074999999999999      34.508578688856481
    57   1       2.556191013989372                       0      35.786674195851162
    58   1      3.8342865209840573      1.8074999999999999      37.064769702845851
    59   1 -1.4821692051289538e-15                       0       35.78667419585117
    60   1      1.2780955069946838      1.8074999999999999      37.064769702845851
    61   1 -1.1240471442970464e-15                       0      38.342865209840539
    62   1      2.5561910139893689                       0      38.342865209840539
    63   1      3.8342865209840515      1.8074999999999999      39.620960716835221
    64   1      1.2780955069946842      1.8074999999999999      39.620960716835221
    65   1      2.5561910139893693                       0      40.899056223829909
    66   1      3.8342865209840546      1.8074999999999999       42.17715173082459
    67   1 -7.6592508346513888e-16                       0      40.899056223829909
    68   1      1.2780955069946844      1.8074999999999999       42.17715173082459
    69   1  -4.078030226332314e-16                       0      43.455247237819279
    70   1      2.5561910139893698                       0      43.455247237819279
    71   1      3.8342865209840524      1.8074999999999999       44.73334274481396
    72   1      1.2780955069946849      1.8074999999999999       44.73334274481396
    73   1      2.5561910139893675                       0      46.011438251808649
    74   1      3.8342865209840555      1.8074999999999999      47.289533758803337
    75   1 -4.9680961801323917e-17                       0      46.011438251808649
    76   1      1.2780955069946827      1.8074999999999999       47.28953375880333
    77   1  1.3490068439370446e-15                       0      48.567629265798011
    78   1      2.5561910139893707                       0      48.567629265798018
    79   1      3.8342865209840533      1.8074999999999999        49.8457247727927
    80   1      1.2780955069946891      1.8074999999999999        49.8457247727927
    81   1      2.5561910139893693      3.6150000000000002 -2.0487956358494867e-16
    82   1      3.8342865209840538      5.4225000000000003      1.2780955069946847
    83   1                       0      3.6150000000000002                       0
    84   1      1.2780955069946844      5.4225000000000003      1.2780955069946844
    85   1 -2.0487956358494867e-16      3.6150000000000002      2.5561910139893693
    86   1      2.5561910139893693      3.6150000000000002      2.5561910139893693
    87   1      3.8342865209840538      5.4225000000000003      3.8342865209840538
    88   1      1.2780955069946847      5.4225000000000003      3.8342865209840538
    89   1      2.5561910139893693      3.6150000000000002      5.1123820279787386
    90   1      3.8342865209840542      5.4225000000000003      6.3904775349734226
    91   1  -9.574063543314236e-17      3.6150000000000002      5.1123820279787386
    92   1      1.2780955069946844      5.4225000000000003      6.3904775349734235
    93   1  7.8433651775317769e-17      3.6150000000000002      7.6685730419681075
    94   1      2.5561910139893693      3.6150000000000002      7.6685730419681075
    95   1      3.8342865209840542      5.4225000000000003      8.9466685489627924
    96   1      1.2780955069946847      5.4225000000000003      8.9466685489627924
    97   1      2.5561910139893689      3.6150000000000002      10.224764055957476
    98   1      3.8342865209840538      5.4225000000000003      11.502859562952162
    99   1 -1.9148127086628472e-16      3.6150000000000002      10.224764055957477
   100   1      1.2780955069946838      5.4225000000000003       11.50285956295216
   101   1 -1.0894331769813972e-15      3.6150000000000002      12.780955069946845
   102   1      2.5561910139893689      3.6150000000000002      12.780955069946847
   103   1      3.8342865209840529      5.4225000000000003       14.05905057694153
   104   1      1.2780955069946842      5.4225000000000003      14.059050576941532
   105   1      2.5561910139893689      3.6150000000000002      15.337146083936215
   106   1      3.8342865209840542      5.4225000000000003        16.6152415909309
   107   1  1.5686730355063554e-16      3.6150000000000002      15.337146083936215
   108   1      1.2780955069946842      5.4225000000000003        16.6152415909309
   109   1 -7.4108460256447692e-16      3.6150000000000002      17.893337097925585
   110   1      2.5561910139893693      3.6150000000000002      17.893337097925585
   111   1      3.8342865209840546      5.4225000000000003       19.17143260492027
   112   1      1.2780955069946844      5.4225000000000003       19.17143260492027
   113   1      2.5561910139893698      3.6150000000000002      20.449528111914955
   114   1      3.8342865209840551      5.4225000000000003      21.727623618909639
   115   1 -3.8296254173256944e-16      3.6150000000000002      20.449528111914955
   116   1      1.2780955069946849      5.4225000000000003      21.727623618909639
   117   1 -2.4840480900661958e-17      3.6150000000000002      23.005719125904324
   118   1      2.5561910139893702      3.6150000000000002      23.005719125904324
   119   1      3.8342865209840529      5.4225000000000003      24.283814632899006
   120   1      1.2780955069946853      5.4225000000000003      24.283814632899009
   121   1      2.5561910139893707      3.6150000000000002      25.561910139893694
   122   1      3.8342865209840555      5.4225000000000003      26.840005646888379
   123   1  3.3328157993124552e-16      3.6150000000000002      25.561910139893694
   124   1      1.2780955069946855      5.4225000000000003      26.840005646888379
   125   1    6.91403640763153e-16      3.6150000000000002      28.118101153883064
   126   1      2.5561910139893707      3.6150000000000002      28.118101153883064
   127   1      3.8342865209840538      5.4225000000000003      29.396196660877749
   128   1       1.278095506994686      5.4225000000000003      29.396196660877749
   129   1      2.5561910139893707      3.6150000000000002       30.67429216787243
   130   1      3.8342865209840533      5.4225000000000003      31.952387674867115
   131   1  3.1373460710127107e-16      3.6150000000000002       30.67429216787243
   132   1      1.2780955069946855      5.4225000000000003      31.952387674867115
   133   1  6.7185666793317855e-16      3.6150000000000002        33.2304831818618
   134   1      2.5561910139893684      3.6150000000000002        33.2304831818618
   135   1      3.8342865209840533      5.4225000000000003      34.508578688856481
   136   1      1.2780955069946833      5.4225000000000003      34.508578688856481
   137   1       2.556191013989372      3.6150000000000002      35.786674195851162
   138   1      3.8342865209840573      5.4225000000000003      37.064769702845851
   139   1 -1.4821692051289538e-15      3.6150000000000002       35.78667419585117
   140   1      1.2780955069946838      5.4225000000000003      37.064769702845851
   141   1 -1.1240471442970464e-15      3.6150000000000002      38.342865209840539
   142   1      2.5561910139893689      3.6150000000000002      38.342865209840539
   143   1      3.8342865209840515      5.4225000000000003      39.620960716835221
   144   1      1.2780955069946842      5.4225000000000003      39.620960716835221
   145   1      2.5561910139893693      3.6150000000000002      40.899056223829909
   146   1      3.8342865209840546      5.4225000000000003       42.17715173082459
   147   1 -7.6592508346513888e-16      3.6150000000000002      40.899056223829909
   148   1      1.2780955069946844      5.4225000000000003       42.17715173082459
   149   1  -4.078030226332314e-16      3.6150000000000002      43.455247237819279
   150   1      2.5561910139893698      3.6150000000000002      43.455247237819279
   151   1      3.8342865209840524      5.4225000000000003       44.73334274481396
   152   1      1.2780955069946849      5.4225000000000003       44.73334274481396
   153   1      2.5561910139893675      3.6150000000000002      46.011438251808649
   154   1      3.8342865209840555      5.4225000000000003      47.289533758803337
   155   1 -4.9680961801323917e-17      3.6150000000000002      46.011438251808649
   156   1      1.2780955069946827      5.4225000000000003       47.28953375880333
   157   1  1.3490068439370446e-15      3.6150000000000002      48.567629265798011
   158   1      2.5561910139893707      3.6150000000000002      48.567629265798018
   159   1      3.8342865209840533      5.4225000000000003        49.8457247727927
   160   1      1.2780955069946891      5.4225000000000003        49.8457247727927
   161   1      2.5561910139893693      7.2300000000000004 -2.0487956358494867e-16
   162   1      3.8342865209840538      9.0374999999999996      1.2780955069946847
   163   1                       0      7.2300000000000004                       0
   164   1      1.2780955069946844      9.0374999999999996      1.2780955069946844
   165   1 -2.0487956358494867e-16      7.2300000000000004      2.5561910139893693
   166   1      2.5561910139893693      7.2300000000000004      2.5561910139893693
   167   1      3.8342865209840538      9.0374999999999996      3.8342865209840538
   168   1      1.2780955069946847      9.0374999999999996      3.8342865209840538
   169   1      2.5561910139893693      7.2300000000000004      5.1123820279787386
   170   1      3.8342865209840542      9.0374999999999996      6.3904775349734226
   171   1  -9.574063543314236e-17      7.2300000000000004      5.1123820279787386
   172   1      1.2780955069946844      9.0374999999999996      6.3904775349734235
   173   1  7.8433651775317769e-17      7.2300000000000004      7.6685730419681075
   174   1      2.5561910139893693      7.2300000000000004      7.6685730419681075
   175   1      3.8342865209840542      9.0374999999999996      8.9466685489627924
   176   1      1.2780955069946847      9.0374999999999996      8.9466685489627924
   177   1      2.5561910139893689      7.2300000000000004      10.224764055957476
   178   1      3.8342865209840538      9.0374999999999996      11.502859562952162
   179   1 -1.9148127086628472e-16      7.2300000000000004      10.224764055957477
   180   1      1.2780955069946838      9.0374999999999996       11.50285956295216
   181   1 -1.0894331769813972e-15      7.2300000000000004      12.780955069946845
   182   1      2.5561910139893689      7.2300000000000004      12.780955069946847
   183   1      3.8342865209840529      9.0374999999999996       14.05905057694153
   184   1      1.2780955069946842      9.0374999999999996      14.059050576941532
   185   1      2.5561910139893689      7.2300000000000004      15.337146083936215
   186   1      3.8342865209840542      9.0374999999999996        16.6152415909309
   187   1  1.5686730355063554e-16      7.2300000000000004      15.337146083936215
   188   1      1.2780955069946842      9.0374999999999996        16.6152415909309
   189   1 -7.4108460256447692e-16      7.2300000000000004      17.893337097925585
   190   1      2.5561910139893693      7.2300000000000004      17.893337097925585
   191   1      3.8342865209840546      9.0374999999999996       19.17143260492027
   192   1      1.2780955069946844      9.0374999999999996       19.17143260492027
   193   1      2.5561910139893698      7.2300000000000004      20.449528111914955
   194   1      3.8342865209840551      9.0374999999999996      21.727623618909639
   195   1 -3.8296254173256944e-16      7.2300000000000004      20.449528111914955
   196   1      1.2780955069946849      9.0374999999999996      21.727623618909639
   197   1 -2.4840480900661958e-17      7.2300000000000004      23.005719125904324
   198   1      2.5561910139893702      7.2300000000000004      23.005719125904324
   199   1      3.8342865209840529      9.0374999999999996      24.283814632899006
   200   1      1.2780955069946853      9.0374999999999996      24.283814632899009
   201   1      2.5561910139893707      7.2300000000000004      25.561910139893694
   202   1      3.8342865209840555      9.0374999999999996      26.840005646888379
   203   1  3.3328157993124552e-16      7.2300000000000004      25.561910139893694
   204   1      1.2780955069946855      9.0374999999999996      26.840005646888379
   205   1    6.91403640763153e-16      7.2300000000000004      28.118101153883064
   206   1      2.5561910139893707      7.2300000000000004      28.118101153883064
   207   1      3.8342865209840538      9.0374999999999996      29.396196660877749
   208   1       1.278095506994686      9.0374999999999996      29.396196660877749
   209   1      2.5561910139893707      7.2300000000000004       30.67429216787243
   210   1      3.8342865209840533      9.0374999999999996      31.952387674867115
   211   1  3.1373460710127107e-16      7.2300000000000004       30.67429216787243
   212   1      1.2780955069946855      9.0374999999999996      31.952387674867115
   213   1  6.7185666793317855e-16      7.2300000000000004        33.2304831818618
   214   1      2.5561910139893684      7.2300000000000004        33.2304831818618
   215   1      3.8342865209840533      9.0374999999999996      34.508578688856481
   216   1      1.2780955069946833      9.0374999999999996      34.508578688856481
   217   1       2.556191013989372      7.2300000000000004      35.786674195851162
   218   1      3.8342865209840573      9.0374999999999996      37.064769702845851
   219   1 -1.4821692051289538e-15      7.2300000000000004       35.78667419585117
   220   1      1.2780955069946838      9.0374999999999996      37.064769702845851
   221   1 -1.1240471442970464e-15      7.2300000000000004      38.342865209840539
   222   1      2.5561910139893689      7.2300000000000004      38.342865209840539
   223   1      3.8342865209840515      9.0374999999999996      39.620960716835221
   224   1      1.2780955069946842      9.0374999999999996      39.620960716835221
   225   1      2.5561910139893693      7.2300000000000004      40.899056223829909
   226   1      3.8342865209840546      9.0374999999999996       42.17715173082459
   227   1 -7.6592508346513888e-16      7.2300000000000004      40.899056223829909
   228   1      1.2780955069946844      9.0374999999999996       42.17715173082459
   229   1  -4.078030226332314e-16      7.2300000000000004      43.455247237819279
   230   1      2.5561910139893698      7.2300000000000004      43.455247237819279
   231   1      3.8342865209840524      9.0374999999999996       44.73334274481396
   232   1      1.2780955069946849      9.0374999999999996       44.73334274481396
   233   1      2.5561910139893675      7.2300000000000004      46.011438251808649
   234   1      3.8342865209840555      9.0374999999999996      47.289533758803337
   235   1 -4.9680961801323917e-17      7.2300000000000004      46.011438251808649
   236   1      1.2780955069946827      9.0374999999999996       47.28953375880333
   237   1  1.3490068439370446e-15      7.2300000000000004      48.567629265798011
   238   1      2.5561910139893707      7.2300000000000004      48.567629265798018
   239   1      3.8342865209840533      9.0374999999999996        49.8457247727927
   240   1      1.2780955069946891      9.0374999999999996        49.8457247727927
   241   1      2.5561910139893693      10.845000000000001 -2.0487956358494867e-16
   242   1      3.8342865209840538                 12.6525      1.2780955069946847
   243   1                       0      10.845000000000001                       0
   244   1      1.2780955069946844                 12.6525      1.2780955069946844
   245   1 -2.0487956358494867e-16      10.845000000000001      2.5561910139893693
   246   1      2.5561910139893693      10.845000000000001      2.5561910139893693
   247   1      3.8342865209840538                 12.6525      3.8342865209840538
   248   1      1.2780955069946847                 12.6525      3.8342865209840538
   249   1      2.5561910139893693      10.845000000000001      5.1123820279787386
   250   1      3.8342865209840542                 12.6525      6.3904775349734226
   251   1  -9.574063543314236e-17      10.845000000000001      5.1123820279787386
   252   1      1.2780955069946844                 12.6525      6.3904775349734235
   253   1  7.8433651775317769e-17      10.845000000000001      7.6685730419681075
   254   1      2.5561910139893693      10.845000000000001      7.6685730419681075
   255   1      3.8342865209840542                 12.6525      8.9466685489627924
   256   1      1.2780955069946847                 12.6525      8.9466685489627924
   257   1      2.5561910139893689      10.845000000000001      10.224764055957476
   258   1      3.8342865209840538                 12.6525      11.502859562952162
   259   1 -1.9148127086628472e-16      10.845000000000001      10.224764055957477
   260   1      1.2780955069946838                 12.6525       11.50285956295216
   261   1 -1.0894331769813972e-15      10.845000000000001      12.780955069946845
   262   1      2.5561910139893689      10.845000000000001      12.780955069946847
   263   1      3.8342865209840529                 12.6525       14.05905057694153
   264   1      1.2780955069946842                 12.6525      14.059050576941532
   265   1      2.5561910139893689      10.845000000000001      15.337146083936215
   266   1      3.8342865209840542                 12.6525        16.6152415909309
   267   1  1.5686730355063554e-16      10.845000000000001      15.337146083936215
   268   1      1.2780955069946842                 12.6525        16.6152415909309
   269   1 -7.4108460256447692e-16      10.845000000000001      17.893337097925585
   270   1      2.5561910139893693      10.845000000000001      17.893337097925585
   271   1      3.8342865209840546                 12.6525       19.17143260492027
   272   1      1.2780955069946844                 12.6525       19.17143260492027
   273   1      2.5561910139893698      10.845000000000001      20.449528111914955
   274   1      3.8342865209840551                 12.6525      21.727623618909639
   275   1 -3.8296254173256944e-16      10.845000000000001      20.449528111914955
   276   1      1.2780955069946849                 12.6525      21.727623618909639
   277   1 -2.4840480900661958e-17      10.845000000000001      23.005719125904324
   278   1      2.5561910139893702      10.845000000000001      23.005719125904324
   279   1      3.8342865209840529                 12.6525      24.283814632899006
   280   1      1.2780955069946853                 12.6525      24.283814632899009
   281   1      2.5561910139893707      10.845000000000001      25.561910139893694
   282   1      3.8342865209840555                 12.6525      26.840005646888379
   283   1  3.3328157993124552e-16      10.845000000000001      25.561910139893694
   284   1      1.2780955069946855                 12.6525      26.840005646888379
   285   1    6.91403640763153e-16      10.845000000000001      28.118101153883064
   286   1      2.5561910139893707      10.845000000000001      28.118101153883064
   287   1      3.8342865209840538                 12.6525      29.396196660877749
   288   1       1.278095506994686                 12.6525      29.396196660877749
   289   1      2.5561910139893707      10.845000000000001       30.67429216787243
   290   1      3.8342865209840533                 12.6525      31.952387674867115
   291   1  3.1373460710127107e-16      10.845000000000001       30.67429216787243
   292   1      1.2780955069946855                 12.6525      31.952387674867115
   293   1  6.7185666793317855e-16      10.845000000000001        33.2304831818618
   294   1      2.5561910139893684      10.845000000000001        33.2304831818618
   295   1      3.8342865209840533                 12.6525      34.508578688856481
   296   1      1.2780955069946833                 12.6525      34.508578688856481
   297   1       2.556191013989372      10.845000000000001      35.786674195851162
   298   1      3.8342865209840573                 12.6525      37.064769702845851
   299   1 -1.4821692051289538e-15      10.845000000000001       35.78667419585117
   300   1      1.2780955069946838                 12.6525      37.064769702845851
   301   1 -1.1240471442970464e-15      10.845000000000001      38.342865209840539
   302   1      2.5561910139893689      10.845000000000001      38.342865209840539
   303   1      3.8342865209840515                 12.6525      39.620960716835221
   304   1      1.2780955069946842                 12.6525      39.620960716835221
   305   1      2.5561910139893693      10.845000000000001      40.899056223829909
   306   1      3.8342865209840546                 12.6525       42.17715173082459
   307   1 -7.6592508346513888e-16      10.845000000000001      40.899056223829909
   308   1      1.2780955069946844                 12.6525       42.17715173082459
   309   1  -4.078030226332314e-16      10.845000000000001      43.455247237819279
   310   1      2.5561910139893698      10.845000000000001      43.455247237819279
   311   1      3.8342865209840524                 12.6525       44.73334274481396
   312   1      1.2780955069946849                 12.6525       44.73334274481396
   313   1      2.5561910139893675      10.845000000000001      46.011438251808649
   314   1      3.8342865209840555                 12.6525      47.289533758803337
   315   1 -4.9680961801323917e-17      10.845000000000001      46.011438251808649
   316   1      1.2780955069946827                 12.6525       47.28953375880333
   317   1  1.3490068439370446e-15      10.845000000000001      48.567629265798011
   318   1      2.5561910139893707      10.845000000000001      48.567629265798018
   319   1      3.8342865209840533                 12.6525        49.8457247727927
   320   1      1.2780955069946891                 12.6525        49.8457247727927
   321   1      2.5561910139893693      14.460000000000001 -2.0487956358494867e-16
   322   1      3.8342865209840538      16.267500000000002      1.2780955069946847
   323   1                       0      14.460000000000001                       0
   324   1      1.2780955069946844      16.267500000000002      1.2780955069946844
   325   1 -2.0487956358494867e-16      14.460000000000001      2.5561910139893693
   326   1      2.5561910139893693      14.460000000000001      2.5561910139893693
   327   1      3.8342865209840538      16.267500000000002      3.8342865209840538
   328   1      1.2780955069946847      16.267500000000002      3.8342865209840538
   329   1      2.5561910139893693      14.460000000000001      5.1123820279787386
   330   1      3.8342865209840542      16.267500000000002      6.3904775349734226
   331   1  -9.574063543314236e-17      14.460000000000001      5.1123820279787386
   332   1      1.2780955069946844      16.267500000000002      6.3904775349734235
   333   1  7.8433651775317769e-17      14.460000000000001      7.6685730419681075
   334   1      2.5561910139893693      14.460000000000001      7.6685730419681075
   335   1      3.8342865209840542      16.267500000000002      8.9466685489627924
   336   1      1.2780955069946847      16.267500000000002      8.9466685489627924
   337   1      2.5561910139893689      14.460000000000001      10.224764055957476
   338   1      3.8342865209840538      16.267500000000002      11.502859562952162
   339   1 -1.9148127086628472e-16      14.460000000000001      10.224764055957477
   340   1      1.2780955069946838      16.267500000000002       11.50285956295216
   341   1 -1.0894331769813972e-15      14.460000000000001      12.780955069946845
   342   1      2.5561910139893689      14.460000000000001      12.780955069946847
   343   1      3.8342865209840529      16.267500000000002       14.05905057694153
   344   1      1.2780955069946842      16.267500000000002      14.059050576941532
   345   1      2.5561910139893689      14.460000000000001      15.337146083936215
   346   1      3.8342865209840542      16.267500000000002        16.6152415909309
   347   1  1.5686730355063554e-16      14.460000000000001      15.337146083936215
   348   1      1.2780955069946842      16.267500000000002        16.6152415909309
   349   1 -7.4108460256447692e-16      14.460000000000001      17.893337097925585
   350   1      2.5561910139893693      14.460000000000001      17.893337097925585
   351   1      3.8342865209840546      16.267500000000002       19.17143260492027
   352   1      1.2780955069946844      16.267500000000002       19.17143260492027
   353   1      2.5561910139893698      14.460000000000001      20.449528111914955
   354   1      3.8342865209840551      16.267500000000002      21.727623618909639
   355   1 -3.8296254173256944e-16      14.460000000000001      20.449528111914955
   356   1      1.2780955069946849      16.267500000000002      21.727623618909639
   357   1 -2.4840480900661958e-17      14.460000000000001      23.005719125904324
   358   1      2.5561910139893702      14.460000000000001      23.005719125904324
   359   1      3.8342865209840529      16.267500000000002      24.283814632899006