LAMMPS (11 Feb 2026 - Development - b75dfcc)
OMP_NUM_THREADS environment is not set. Defaulting to 1 thread.
  using 1 OpenMP thread(s) per MPI task
package gpu 1
units metal
boundary p p p
atom_style atomic
timestep 0.002
read_data data.crystal
Reading data file ...
  orthogonal box = (0 0 0) to (51.12382 50.61 51.12382)
  1 by 1 by 1 MPI processor grid
  reading atoms ...
  11200 atoms
  read_data CPU = 0.033 seconds
change_box all triclinic
Changing box ...
  triclinic box = (0 0 0) to (51.12382 50.61 51.12382) with tilt (0 0 0)

pair_style eam/alloy
pair_coeff * * Cu_zhou.eam.alloy Cu
Reading eam/alloy potential file Cu_zhou.eam.alloy with DATE: 2007-10-12

neighbor 2.0 bin
neigh_modify delay 10 check yes

thermo 100
thermo_style custom step temp pe press pxx pyy pzz lx ly lz

print '=== Phase 1: 0K Relaxation ==='
=== Phase 1: 0K Relaxation ===
fix relax all box/relax aniso 0.0 vmax 0.001
minimize 1.0e-8 1.0e-10 10000 100000

CITE-CITE-CITE-CITE-CITE-CITE-CITE-CITE-CITE-CITE-CITE-CITE-CITE

Your simulation uses code contributions which should be cited:

- GPU package (short-range, long-range and three-body potentials): https://doi.org/10.1016/j.cpc.2010.12.021, https://doi.org/10.1016/j.cpc.2011.10.012, https://doi.org/10.1016/j.cpc.2013.08.002, https://doi.org/10.1016/j.commatsci.2014.10.068, https://doi.org/10.1016/j.cpc.2016.10.020, https://doi.org/10.3233/APC200086

@Article{Brown11,
 author = {W. M. Brown and P. Wang and S. J. Plimpton and A. N. Tharrington},
 title = {Implementing Molecular Dynamics on Hybrid High Performance Computers---Short Range Forces},
 journal = {Comput.\ Phys.\ Commun.},
 year =    2011,
 volume =  182,
 pages =   {898--911},
 doi =     {10.1016/j.cpc.2010.12.021Done.

Setting up cg style minimization ...
  Unit style    : metal
  Current step  : 0
WARNING: Energy due to 3 extra global DOFs will be included in minimizer energies
 (src/min.cpp:222)
Per MPI rank memory allocation (min/avg/max) = 11.58 | 11.58 | 11.58 Mbytes
   Step          Temp          PotEng         Press           Pxx            Pyy            Pzz             Lx             Ly             Lz      
         0   0             -39645.8       -214.16286     -214.18801     -214.11211     -214.18846      51.12382       50.61          51.12382     
         3   0             -39645.801      0.0089685291   0.01229583     0.0027215785   0.011888179    51.121179      50.607387      51.121179    
Loop time of 0.0129576 on 1 procs for 3 steps with 11200 atoms

100.3% CPU use with 1 MPI tasks x 1 OpenMP threads

Minimization stats:
  Stopping criterion = energy tolerance
  Energy initial, next-to-last, final = 
     -39645.7998850424  -39645.8010696889   -39645.801136194
  Force two-norm initial, final = 30.62509 0.001777244
  Force max component initial, final = 17.683517 0.0010150456
  Final line search alpha, max atom move = 0.096129701 9.7576031e-05
  Iterations, force evaluations = 3 6

MPI task timing breakdown:
Section |  min time  |  avg time  |  max time  |%varavg| %total
---------------------------------------------------------------
Pair    | 0.0090659  | 0.0090659  | 0.0090659  |   0.0 | 69.97
Neigh   | 0          | 0          | 0          |   0.0 |  0.00
Comm    | 0.00054405 | 0.00054405 | 0.00054405 |   0.0 |  4.20
Output  | 0          | 0          | 0          |   0.0 |  0.00
Modify  | 6.4e-07    | 6.4e-07    | 6.4e-07    |   0.0 |  0.00
Other   |            | 0.003347   |            |       | 25.83

Nlocal:          11200 ave       11200 max       11200 min
Histogram: 1 0 0 0 0 0 0 0 0 0
Nghost:          22141 ave       22141 max       22141 min
Histogram: 1 0 0 0 0 0 0 0 0 0
Neighs:              0 ave           0 max           0 min
Histogram: 1 0 0 0 0 0 0 0 0 0

Total # of neighbors = 0
Ave neighs/atom = 0
Neighbor list builds = 0
Dangerous builds = 0
=== Phase 2: Equilibration at 300.0K ===


---------------------------------------------------------------------
      Device Time Info (average): 
---------------------------------------------------------------------
Data Transfer:   0.0012 s.
Neighbor copy:   0.0000 s.
Neighbor build:  0.0005 s.
Force calc:      0.0071 s.
Device Overhead: 0.0002 s.
CPU Neighbor:    0.0007 s.
CPU Cast/Pack:   0.0012 s.
CPU Driver_Time: 0.0002 s.
CPU Idle_Time:   0.0073 s.
Average split:   1.0000.
Max Mem / Proc:  38.63 MB.
Prefetch mode:   None.
Vector width:    32.
Lanes / atom:    4.
Pair block:      256.
Neigh block:     128.
Neigh mode:      Hybrid (binning on host) with subgroup support.
Neigh sorting:   Unavailable or disabled.
---------------------------------------------------------------------


--------------------------------------------------------------------------
- Using acceleration for eam/alloy:
-  with 1 proc(s) per device.
-  with 1 thread(s) per proc.
-  Horizontal vector operations: ENABLED
-  Shared memory system: No
--------------------------------------------------------------------------
Device 0: NVIDIA RTX A4000, 48 CUs, 16/16 GB, 1.6 GHZ (Mixed Precision)
--------------------------------------------------------------------------

Initializing Device and compiling on process 0...Done.
Initializing Device 0 on core 0...Done.

Setting up Verlet run ...
  Unit style    : metal
  Current step  : 0
  Time step     : 0.002
Per MPI rank memory allocation (min/avg/max) = 8.549 | 8.549 | 8.549 Mbytes
   Step          Temp          PotEng         Press           Pxx            Pyy            Pzz             Lx             Ly             Lz      
         0   300           -39645.801      3507.3045      3515.0579      3505.3018      3501.5539      51.121179      50.607387      51.121179    
       100   147.22214     -39361.882      4164.2262      4166.8327      4273.065       4052.781       51.14873       50.624962      51.155659    
       200   198.13675     -39329.481      1214.5663      1183.45        1039.4344      1420.8144      51.20247       50.682408      51.195959    
       300   249.17975     -39283.52      -251.07435     -130.09147     -24.17755      -598.95401      51.229575      50.712111      51.250606    
       400   283.7036      -39220.046     -920.29087     -1021.9087     -1005.1617     -733.80218      51.270709      50.750712      51.263419    
       500   310.65014     -39187.337     -1516.353      -1683.7255     -1454.3426     -1410.9909      51.291557      50.760489      51.293638    
       600   301.22904     -39196.708     -1643.7015     -1395.6967     -1817.5704     -1717.8373      51.270328      50.77437       51.290253    
       700   293.97619     -39210.777     -1541.1055     -1736.548      -1520.7674     -1366.0009      51.287279      50.75561       51.27883     
       800   301.71161     -39194.47      -1425.1894     -1553.5267     -1428.8975     -1293.1438      51.282026      50.768068      51.281045    
       900   302.29192     -39191.198     -886.63582     -649.85167     -826.4934      -1183.5624      51.269557      50.746326      51.297545    
      1000   295.05662     -39206.342     -53.41064      -152.53466     -126.28283      118.58556      51.257571      50.754388      51.251881    
      1100   301.87223     -39201.834      844.64453      554.87359      889.92744      1089.1326      51.257981      50.734679      51.24626     
      1200   305.26202     -39193.227      1758.163       1985.3172      1884.3918      1404.7802      51.234839      50.719044      51.260083    
      1300   295.74118     -39200.416      2218.5403      2315.2203      1979.0491      2361.3515      51.225872      50.731188      51.225234    
      1400   295.67487     -39198.991      2171.7652      1793.8665      2493.7899      2227.6394      51.253053      50.696643      51.239164    
      1500   303.34868     -39192.776      1510.4873      1855.4101      1393.7244      1282.3274      51.229921      50.733091      51.256178    
      1600   296.75493     -39196.683      980.85111      976.01653      786.17754      1180.3592      51.241757      50.739571      51.252098    
      1700   297.18866     -39203.978      307.21862      62.348107      399.13256      460.1752       51.271119      50.731113      51.251868    
      1800   303.03437     -39196.834     -337.41387      88.065173     -512.54642     -587.76035      51.245774      50.763407      51.280561    
      1900   301.3418      -39196.698     -933.12729     -1201.3368     -768.79159     -829.25347      51.284337      50.756728      51.273643    
      2000   297.07407     -39204.313     -1593.5333     -1734.6203     -1538.1754     -1507.8042      51.287143      50.761278      51.283724    
      2100   302.30267     -39200.481     -2092.1627     -1896.3594     -2161.5105     -2218.6182      51.274916      50.787243      51.294767    
      2200   305.51341     -39196.672     -2063.3008     -2454.6364     -1851.0076     -1884.2585      51.309038      50.759877      51.29487     
      2300   294.32564     -39200.486     -1380.3515     -1055.3087     -1557.8442     -1527.9017      51.264697      50.776751      51.2842      
      2400   300.55604     -39202.412     -508.84653     -616.39919     -525.04983     -385.09057      51.271459      50.753573      51.267581    
      2500   300.65647     -39190.021      433.09793      283.86674      579.81738      435.60967      51.274018      50.715406      51.275333    
Loop time of 3.87293 on 1 procs for 2500 steps with 11200 atoms

Performance: 111.544 ns/day, 0.215 hours/ns, 645.506 timesteps/s, 7.230 Matom-step/s
99.7% CPU use with 1 MPI tasks x 1 OpenMP threads

MPI task timing breakdown:
Section |  min time  |  avg time  |  max time  |%varavg| %total
---------------------------------------------------------------
Pair    | 2.7834     | 2.7834     | 2.7834     |   0.0 | 71.87
Neigh   | 0          | 0          | 0          |   0.0 |  0.00
Comm    | 0.1947     | 0.1947     | 0.1947     |   0.0 |  5.03
Output  | 0.0022527  | 0.0022527  | 0.0022527  |   0.0 |  0.06
Modify  | 0.81429    | 0.81429    | 0.81429    |   0.0 | 21.03
Other   |            | 0.0783     |            |       |  2.02

Nlocal:          11200 ave       11200 max       11200 min
Histogram: 1 0 0 0 0 0 0 0 0 0
Nghost:          22141 ave       22141 max       22141 min
Histogram: 1 0 0 0 0 0 0 0 0 0
Neighs:              0 ave           0 max           0 min
Histogram: 1 0 0 0 0 0 0 0 0 0

Total # of neighbors = 0
Ave neighs/atom = 0
Neighbor list builds = 0
Dangerous builds = 0
=== Phase 3: Tension ===


---------------------------------------------------------------------
      Device Time Info (average): 
---------------------------------------------------------------------
Data Transfer:   0.3482 s.
Neighbor copy:   0.0000 s.
Neighbor build:  0.0005 s.
Force calc:      2.0812 s.
Device Overhead: 0.0488 s.
CPU Neighbor:    0.0003 s.
CPU Cast/Pack:   0.3365 sunfix eq

print '=== Phase 3: Tension ==='
=== Phase 3: Tension ===
reset_timestep 0

# 初期z寸法の記録
variable tmp equal lz
variable lz0 equal ${tmp}
variable lz0 equal 51.2753331975681
variable tmp delete

# z軸変形 + x,yゼロ圧力（Poisson収縮を許容）
fix deform_fix all deform 1 z erate 0.0005 remap x
fix npt_fix all npt temp 300.0 300.0 0.1 x 0.0 0.0 1.0 y 0.0 0.0 1.0 xy 0.0 0.0 1.0 xz 0.0 0.0 1.0 yz 0.0 0.0 1.0

# ひずみ・応力（sigma = -P [GPa]）
variable strain equal (lz-v_lz0)/v_lz0
variable stress equal -pzz/10000

# 欠陥解析用compute
# stress/atom: 単位は bar*Å³（実応力はボロノイ体積で割る必要あり）
compute peratom all stress/atom NULL
compute cna all cna/atom 3.087
compute csym all centro/atom fcc

thermo 100
thermo_style custom step temp v_strain v_stress pxx pyy pzz lx ly lz

fix out1 all print 100 "${strain} ${stress}" file stress_strain.txt screen no
dump 1 all cuDone.

Neighbor list info ...
  update: every = 1 steps, delay = 10 steps, check = yes
  max neighbors/atom: 2000, page size: 100000
  master list distance cutoff = 11.0375
  ghost atom cutoff = 11.0375
  binsize = 5.51875, bins = 10 10 10
  2 neighbor lists, perpetual/occasional/extra = 0 2 0
  (1) compute cna/atom, occasional
      attributes: full, newton on
      pair build: full/bin/atomonly
      stencil: full/bin/3d
      bin: standard
  (2) compute centro/atom, occasional
      attributes: full, newton on
      pair build: full/bin/atomonly
      stencil: full/bin/3d
      bin: standard
Setting up Verlet run ...
  Unit style    : metal
  Current step  : 0
  Time step     : 0.002
Per MPI rank memory allocation (min/avg/max) = 13.33 | 13.33 | 13.33 Mbytes
   Step          Temp         v_strain       v_stress    v_stress_drop  v_drop_from_peak      Pxx            Pyy            Pzz             Lx             Ly             Lz      
         0   300.65647      4.1572196e-16 -0.043561056    4.1633363e-17  0.043561056    283.86824      579.81851      435.61056      51.274018      50.715406      51.275333    
       100   299.242        0.0001         0.031430189   -0.037495623    0              444.45682     -123.24247     -314.30189      51.240637      50.753583      51.280461    
       200   296.60331      0.0002         0.015037895   -0.014068886    0.016392294   -142.88091      665.57475     -150.37895      51.281766      50.702772      51.285588    
       300   302.93336      0.0003         0.11525848    -0.085717106    0              437.91617     -617.56916     -1152.5848      51.232122      50.768333      51.290716    
       400   300.89078      0.0004         0.057861266   -0.02265591     0.057397219   -948.77473      78.394907     -578.61266      51.309347      50.697396      51.295843    
       500   301.29515      0.0005         0.16649428    -0.10940743     0             -638.54725     -1269.9517     -1664.9428      51.246165      50.769142      51.300971    
       600   300.29731      0.0006         0.13245506    -0.064601329    0.034039217   -1248.8169     -621.70675     -1324.5506      51.297905      50.712297      51.306098    
       700   300.79656      0.0007         0.16718586    -0.086915611    0             -764.3626      -888.70556     -1671.8586      51.275973      50.734916      51.311226    
       800   298.97278      0.0008         0.17964189    -0.08833035     0             -347.96059     -662.76714     -1796.4189      51.256483      50.733641      51.316353    
       900   299.9208       0.0009         0.10477295    -0.012115272    0.074868936   -638.65523      667.53248     -1047.7295      51.299827      50.672343      51.321481    
      1000   300.06654      0.001          0.16912885    -0.055202176    0.010513042    774.1035      -175.27959     -1691.2885      51.224714      50.742566      51.326609    
      1100   302.7287       0.0011         0.080489851    0.038342787    0.099152039    205.15959      1071.8857     -804.89851      51.290644      50.648727      51.331736    
      1200   301.68534      0.0012         0.18176641    -0.046260923    0 0.0005         0.16649428    -0.10940743     0             -638.54725     -1269.9517     -1664.9428      51.246165      50.769142      51.300971    
       600   300.29731      0.0006         0.13245506    -0.064601329    0.034039217   -1248.8169     -621.70675     -1324.5506      51.297905      50.712297      51.306098    
       700   300.79656      0.0007         0.16718586    -0.086915611    0             -764.3626      -888.70556     -1671.8586      51.275973      50.734916      51.311226    
       800   298.97278      0.0008         0.17964189    -0.08833035     0             -347.96059     -662.76714     -1796.4189      51.256483      50.733641      51.316353    
       900   299.9208       0.0009         0.10477295    -0.012115272    0.074868936   -638.65523      667.53248     -1047.7295      51.299827      50.672343      51.321481    
      1000   300.06654      0.001          0.16912885    -0.055202176    0.010513042    7276289      50.669754      51.362501    
      1800   298.87644      0.0018         0.286342      -0.11512733     0             -316.79155     -458.30391     -2863.42        51.269559      50.684531      51.367629    
      1900   300.35466      0.0019         0.30286624    -0.11184224     0             -946.54873     -768.07809     -3028.6624      51.285934      50.680071      51.372756    
      2000   302.25336      0.002          0.35651375    -0.14675126     0             -1352.4325     -737.44186     -3565.1375      51.297961      50.675401      51.377884    
      2100   297.85596      0.0021         0.36418584    -0.12605376     0             -1214.517      -1175.6132     -3641.8584      51.284047      50.687147      51.383011    
      2200   297.0606       0.0022         0.3717551     -0.11462414     0             -1690.3086     -731.61686     -3717.551       51.309418      50.651933      51.388139    
      2300   299.0065       0.0023         0.42624038    -0.13823002     0             -712.67866     -1278.7327     -4262.4038      51.261551      50.703004      51.393266    
      2400   299.81904      0.0024         0.32061623    -0.018760181    0.10562415    -767.64364      44.933664     -3206.1623      51.30374       50.62644       51.398394    
      2500   296.90013      0.0025         0.36798125    -0.04439009     0.058259134    660.72573     -185.3858      -3679.8125      51.233689      50.674951      51.403522    
      2600   296.0967       0.0026         0.28621959     0.044889881    0.14002079     426.59931      1069.9113     -2862.1959      51.276314      50.607434      51.408649    
      2700   302.80855      0.0027         0.33664184     0.0052943842   0.089598543    1521.0602      490.98137     -3366.4184      51.229343      50.650975      51.413777    
      2800   298.36542      0.0028         0.29285179     0.049735407    0.13338859     1155.7309      1593.2692     -2928.5179      51.257695      50.60356       51.418904    
      2900   299.6881       0.0029         0.34805316    -0.00094726736  0.07818722     1417.5315      896.97103     -3480.5316      51.232795      50.631597      51.424032    
      3000   302.37426      0.003          0.31895372     0.024396167    0.10728666     773.20354      902.69195     -3189.5372      51.268911      50.602509      51.429159    
      3100   299.44391      0.0031         0.40401727    -0.056684235    0.022223112    841.29835      142.92321     -4040.1727      51.246414      50.639008      51.434287    
      3200   295.64734      0.0032         0.44475123    -0.090118588    0              24.630098      287.76853     -4447.5123      51.287002      50.602627      51.439414    
      3300   301.84786      0.0033         0.45475006    -0.097266445    0             -243.72206     -455.51775     -4547.5006      51.263547      50.637029      51.444542    
      3400   298.99064      0.0034         0.5091711     -0.132832       0             -703.49268     -467.50018     -5091.711       51.285927      50.626731      51.449669    
      3500   296.40354      0.0035         0.51588761    -0.12475788     0             -1122.3376  9     0.049735407    0.13338859     1155.7309      1593.2692     -2928.5179      51.257695      50.60356       51.418904    
      2900   299.6881       0.0029         0.34805316    -0.00094726736  0.07818722     1417.5315      896.97103     -3480.5316      51.232795      50.631597      51.424032    
      3000   302.37426      0.003          0.31895372     0.024396167    0.10728666     773.20354      902.69195     -3189.5372      51.268911      50.602509      51.429159    
      3100   299.44391      0.0031         0.40401727    -0.056684235    0.022223112    841.29835      142.92321     -4040.1727      51.246414      50.639008      51.434287    
      3200   295.64734      0.0032         0.44475123    -0.090118588    0              24.630098      287.76853     -4447.5123      51.287002      50.602627      51.439414    
      3300   301.84786      0.0033         0.45475006    -0.097266445    0             -243.72206     -455.51775    51.480435    
      4100   301.64285      0.0041         0.5143815     -0.0077471902   0.02115898    -47.514855      500.49671     -5143.815       51.278955      50.576134      51.485562    
      4200   299.53542      0.0042         0.56175896    -0.043423879    0              494.28269      155.71953     -5617.5896      51.250852      50.601341      51.49069     
      4300   302.14408      0.0043         0.5291024     -0.0033320797   0.032656565    506.6198       588.55508     -5291.024       51.269757      50.570087      51.495817    
      4400   304.21681      0.0044         0.54350259    -0.014299119    0.018256378    1104.2415      550.0351      -5435.0259      51.249936      50.584046      51.500945    
      4500   301.9854       0.0045         0.51975471     0.0098354645   0.042004251    1006.4601      1273.8427     -5197.5471      51.26118       50.54774       51.506072    
      4600   298.92175      0.0046         0.54988634    -0.018861575    0.011872627    1430.3861      445.61538     -5498.8634      51.227723      50.588305      51.5112      
      4700   301.14701      0.0047         0.55979356    -0.024172244    0.0019654082   177.97156      759.74717     -5597.9356      51.291609      50.538833      51.516327    
      4800   300.32071      0.0048         0.67399545    -0.12393275     0              84.717899     -798.07814     -6739.9545      51.250072      50.603868      51.521455    
      4900   301.21869      0.0049         0.69533547    -0.12716684     0             -1264.3377     -455.6543      -6953.3547      51.309279      50.553472      51.526582    
      5000   298.59859      0.005          0.73810859    -0.14954663     0             -1088.9344     -1126.8961     -7381.0859      51.283555      50.593916      51.53171     
      5100   298.89035      0.0051         0.7278253     -0.11791896     0.01028329    -1170.9584     -906.07965     -7278.253       51.294043      50.568326      51.536837    
      5200   303.06687      0.0052         0.74109645    -0.11325637     0             -1280.5434     -511.85855     -7410.9645      51.29039       50.562494      51.541965    
      5300   301.92755      0.0053         0.75212722    -0.10198465     0             -402.77392     -661.12922     -7521.2722      51.266928      50.580586      51.547092    
      5400   296.46981      0.0054         0.69817605    -0.032566136    0.053951167   -476.78951      265.11908     -6981.7605      51.299751      50.525247      51.55222     
      5500   296.96179      0.0055         0.74911881    -0.060572487    0.0030084056   606.23116     -471.11723     -7491.1881      51.225198      50.586674      51.557348    
      5600   297.1912       0.0056         0.68140764     0.020290812    0.070719575   -27.786193      932.73375     -6814.0764      51.297354      50.494797      51.562475    
      5700   300.72948      0.0057         0.75913896    -0.037505966    0              1187.1996      72.983875     -7591.3896      51.220646      50.575036      51.567603    
      5800   298.58074      0.0058         0.66968747     0.051514723    0.089451488    496.68646      1211.5758     -6696.8028329    -1170.9584     -906.07965     -7278.253       51.294043      50.568326      51.536837    
      5200   303.06687      0.0052         0.74109645    -0.11325637     0             -1280.5434     -511.85855     -7410.9645      51.29039       50.562494      51.541965    
      5300   301.92755      0.0053         0.75212722    -0.10198465     0             -402.77392     -661.12922     -7521.2722      51.266928      50.580586      51.547092    
      5400   296.46981      0.0054         0.69817605    -0.032566136    0.053951167   -476.78951      265.11908     -6981.7605      51.299751      50.525247      51.55222     
      5500   296.96179      0.0055         0.74911881    -0.060572487    0.0030084056   606.23116     -471.11723     -7491.1881      51.225198      50.586674      51.557348    
      5600   297.1912       0.0056         0.68140764     0.020290812    0.070719575   -27.786193      932.73375     -6814.0764      51.2970   300.12148      0.0064         0.8675723     -0.11295963     0             -74.944592     -532.00428     -8675.723       51.24756       50.556378      51.603495    
      6500   297.33287      0.0065         0.83816587    -0.074648497    0.029406431   -744.52377      11.481792     -8381.6587      51.300638      50.489348      51.608623    
      6600   301.83467      0.0066         0.88071537    -0.097267222    0             -297.05537     -683.82686     -8807.1537      51.263863      50.530769      51.61375     
      6700   301.1445       0.0067         0.86861806    -0.074222003    0.012097309   -279.23925      34.972581     -8686.1806      51.283166      50.501548      51.618878    
      6800   298.65418      0.0068         0.89464502    -0.07775321     0             -102.00309     -323.91751     -8946.4502      51.266083      50.513735      51.624005    
      6900   301.27965      0.0069         0.90220276    -0.069283053    0             -325.22896     -184.06529     -9022.0276      51.27434       50.504407      51.629133    
      7000   294.15294      0.007          0.91336716    -0.0620843      0              201.9187      -125.2513      -9133.6716      51.256045      50.506739      51.634261    
      7100   303.34431      0.0071         0.92230118    -0.053167839    0             -221.98626     -47.777871     -9223.0118      51.283745      50.485884      51.639388    
      7200   298.82773      0.0072         0.94388722    -0.06243395     0              19.855821      41.94586      -9438.8722      51.266314      50.495254      51.644516    
      7300   295.66919      0.0073         0.94289203    -0.045455336    0.00099518188  141.39874      8.3696225     -9428.9203      51.260071      50.491178      51.649643    
      7400   299.90802      0.0074         0.93876279    -0.034207043    0.0051244272   161.78073      340.3831      -9387.6279      51.270936      50.468818      51.654771    
      7500   303.28985      0.0075         0.983909      -0.06477894     0              779.41344      108.63265     -9839.09        51.241334      50.498491      51.659898    
      7600   300.62501      0.0076         0.90904615     0.012916987    0.074862849    407.27954      966.76176     -9090.4615      51.27389       50.441264      51.665026    
      7700   297.67255      0.0077         0.99211804    -0.057804908    0              1047.3376      378.03804     -9921.1804      51.227719      50.489085      51.670153    
      7800   302.30544      0.0078         0.93048668     0.0074106236   0.061631366    306.12853      937.25439     -9304.8668      51.284618      50.429309      51.675281    
      7900   300.52051      0.0079         1.0054399     -0.057218843    0              735.79498     -130.73948     -10054.399      51.236892      50.491514      51.680408    
      8000   298.87513      0.008          1.0088496     -0.051080346    0             -206.38023      458.11898     -10088.496      51.290362      50.432296      51.685536    
      8100   302.83631      0.0081         1.0510122     -0.080371811    0             -404.61218     -621.19068     -10510.122      51.273601      5 340.3831      -9387.6279      51.270936      50.468818      51.654771    
      7500   303.28985      0.0075         0.983909      -0.06477894     0              779.41344      108.63265     -9839.09        51.241334      50.498491      51.659898    
      7600   300.62501      0.0076         0.90904615     0.012916987    0.074862849    407.27954      966.76176     -9090.4615      51.27389       50.441264      51.665026    
      7700   297.67255      0.0077         0.99211804    -0.057804908    0              1047.3376      378.03804     -9921.1804      51.227719      50.489085      51.670153    
      7800   302.30544      0.0078         0.93048668     0.0074106236   0.061631366    306.12853      937.25439     -9304.8668      51.284618      50.429309      51.675281    
      7900   300.52051      0.0079         1.0054399     -0.057218843    0              735.79498     -130.73948     -10054.399      51.236892      50.491514      5         1.052154       0.0054422773   0.098826969   -448.1757       918.81513     -10521.54       51.308414      50.39159       51.721429    
      8800   299.40084      0.0088         1.1110337     -0.035382749    0.039947241    1091.2382      4.5188345     -11110.337      51.222406      50.467622      51.726556    
      8900   303.25397      0.0089         1.0647892      0.016796696    0.086191753    359.65346      984.23913     -10647.892      51.290499      50.381783      51.731684    
      9000   302.02987      0.009          1.1228673     -0.029879637    0.028113652    1328.6403      511.04221     -11228.673      51.248506      50.423773      51.736811    
      9100   300.11692      0.0091         1.0987743     -0.0010104171   0.052206661    929.07563      612.17151     -10987.743      51.255543      50.410374      51.741939    
      9200   297.84481      0.0092         1.1268307     -0.023849659    0.024150223    401.12392      632.70068     -11268.307      51.276977      50.393083      51.747066    
      9300   304.07998      0.0093         1.1870959     -0.072986175    0              381.0915       83.229599     -11870.959      51.253273      50.429638      51.752194    
      9400   297.97779      0.0094         1.1851612     -0.065846267    0.0019347303  -118.52088      492.20345     -11851.612      51.292693      50.386396      51.757321    
      9500   301.21259      0.0095         1.2378919     -0.10413396     0             -77.382612     -572.97389     -12378.919      51.260769      50.42814       51.762449    
      9600   301.97842      0.0096         1.230824      -0.089081766    0.0070678878  -572.60034     -82.263179     -12308.24       51.292457      50.398912      51.767576    
      9700   302.25616      0.0097         1.2610338     -0.098403604    0             -541.15886     -360.52023     -12610.338      51.277335      50.412974      51.772704    
      9800   301.44262      0.0098         1.2835257     -0.10364628     0             -936.27774     -331.48405     -12835.257      51.29699       50.392971      51.777831    
      9900   301.75619      0.0099         1.2979918     -0.094792132    0             -389.66303     -682.81524     -12979.918      51.273725      50.419103      51.782959    
     10000   301.64665      0.01           1.2759455     -0.05743807     0.022046238   -669.59187     -167.44006     -12759.455      51.295316      50.382683      51.788087    
     10100   299.1831       0.0101         1.2988018     -0.060291579    0              181.34226     -78.640765     -12988.018      51.254386      50.40627       51.793214    
     10200   301.40201      0.0102         1.2388169      0.010891899    0.059984856    636.58902      823.98557     -12388.169      51.263605      50.364352      51.798342    
     10300   304.41341      0.0103         1.2287565      0.025118371    0.070045265    1202.9048      1245.1399     -12287.565      51.258522      50.355914      51.803469    
     10400   298.91079      0.0104         1.2479267      0.012224739    0.050875077    1418.7854      1061.1992     -12479.267      51.242503      50.365873      51.808597        51.277335      50.412974      51.772704    
      9800   301.44262      0.0098         1.2835257     -0.10364628     0             -936.27774     -331.48405     -12835.257      51.29699       50.392971      51.777831    
      9900   301.75619      0.0099         1.2979918     -0.094792132    0             -389.66303     -682.81524     -12979.918      51.273725      50.419103      51.782959    
     10000   301.64665      0.01           1.2759455     -0.05743807     0.022046238   -669.59187     -167.44006     -12759.455      51.295316      50.382683      51.788087    
     10100   299.1831       0.0101         1.2988018     -0.060291579    0              181.34226     -78.640765     -12988.018      51.254386      50.40627       51.793214    
     10200   301.40201      0.0102         1.2388169      0.010891899    0.059984856    636.58902      823.98557     -12388.169      51.263605      50.364352      51.798342    
     10300  .14837067     0             -947.56215     -848.02826     -14659.119      51.285348      50.376774      51.839362    
     11100   297.95818      0.0111         1.4648355     -0.13069094     0.0010763568  -855.624       -565.03399     -14648.355      51.293812      50.360187      51.844489    
     11200   301.21827      0.0112         1.4586342     -0.10250796     0.0072776067  -689.77286     -604.01828     -14586.342      51.290174      50.362859      51.849617    
     11300   298.5801       0.0113         1.4449366     -0.067192301    0.020975259   -456.02808     -360.87197     -14449.366      51.283118      50.351313      51.854744    
     11400   298.79937      0.0114         1.4169355     -0.02229029     0.048976395   -218.16793      157.51053     -14169.355      51.281671      50.332708      51.859872    
     11500   302.87747      0.0115         1.4228455     -0.012964293    0.04306634     498.51353      260.31934     -14228.455      51.265858      50.334948      51.865       
     11600   302.20462      0.0116         1.4041719      0.016360238    0.061739926    584.4525       529.73488     -14041.719      51.272465      50.31586       51.870127    
     11700   300.19481      0.0117         1.4253222      0.0036857933   0.040589615    933.40942      571.78775     -14253.222      51.254283      50.321603      51.875255    
     11800   302.81432      0.0118         1.4135945      0.017549387    0.052317357    824.41417      653.81552     -14135.945      51.264716      50.314596      51.880382    
     11900   299.74402      0.0119         1.4627151     -0.024724809    0.0031967518   666.3574       470.06384     -14627.151      51.265748      50.317376      51.88551     
     12000   299.00456      0.012          1.4910062     -0.050506479    0              370.73981      194.7255      -14910.062      51.264968      50.319894      51.890637    
     12100   300.58095      0.0121         1.5329238     -0.085615245    0             -100.31187     -165.77746     -15329.238      51.280949      50.31768       51.895765    
     12200   302.0484       0.0122         1.5186363     -0.065327535    0.014287505   -588.44924     -302.56529     -15186.363      51.286322      50.318662      51.900892    
     12300   298.64244      0.0123         1.5838339     -0.1166354      0             -784.798       -661.32666     -15838.339      51.288472      50.320458      51.90602     
     12400   301.74555      0.0124         1.5604928     -0.078938569    0.023341095   -1367.61       -650.72537     -15604.928      51.312153      50.295813      51.911147    
     12500   303.07104      0.0125         1.6253837     -0.12357565     0             -525.96897     -919.94672     -16253.837      51.278015      50.334172      51.916275    
     12600   298.92506      0.0126         1.570962      -0.052474943    0.054421698   -642.7456       64.620968     -15709.62       51.299418      50.281103      51.921402    
     12700   300.28444      0.0127         1.5905432     -0.055534046    0.034840499    50.149273     -191.7571      -15905.432      51.26832       50.304308      51.92653     
     12800   301.7504619894      51.890637    
     12100   300.58095      0.0121         1.5329238     -0.085615245    0             -100.31187     -165.77746     -15329.238      51.280949      50.31768       51.895765    
     12200   302.0484       0.0122         1.5186363     -0.065327535    0.014287505   -588.44924     -302.56529     -15186.363      51.286322      50.318662      51.900892    
     12300   298.64244      0.0123         1.5838339     -0.1166354      0             -784.798       -661.32666     -15838.339      51.288472      50.320458      51.90602     
     12400   301.74555      0.0124         1.5604928     -0.078938569    0.023341095   -1367.61       -650.72537     -15604.928      51.312153      50.295813      51.911147    
     12500   303.07104      0.0125         1.6253837     -0.12357565     0             -525.96897     -919.94672     -16253.837      51.278015      50.334172      51.916275    
     12600   298.92506      0.0126       42.026981     -295.83492     -16561.555      51.269203      50.285481      51.957295    
     13400   299.96529      0.0134         1.6682913     -0.060742462    0             -729.76075     -260.75577     -16682.913      51.300401      50.263645      51.962423    
     13500   296.3323       0.0135         1.7309801     -0.11287167     0             -919.7142      -783.92678     -17309.801      51.285644      50.286067      51.96755     
     13600   297.8436       0.0136         1.7491068     -0.11318391     0             -1017.9525     -1055.0866     -17491.068      51.301503      50.278087      51.972678    
     13700   305.22413      0.0137         1.7674961     -0.11387784     0             -1398.9742     -1136.9972     -17674.961      51.311251      50.275483      51.977805    
     13800   303.94312      0.0138         1.7952837     -0.11871192     0             -991.08772     -1191.3734     -17952.837      51.282093      50.295545      51.982933    
     13900   299.37244      0.0139         1.7330167     -0.042687425    0.06226708    -834.88427      50.378432     -17330.167      51.307663      50.232638      51.98806     
     14000   299.99183      0.014          1.7715378     -0.061312766    0.023745935    611.75452     -253.05028     -17715.378      51.239037      50.283329      51.993188    
     14100   303.14732      0.0141         1.6611715      0.055214851    0.13411224     265.80984      871.39936     -16611.715      51.296739      50.201431      51.998315    
     14200   300.56997      0.0142         1.7673131     -0.037277858    0.027970625    1379.9466      376.00848     -17673.131      51.237005      50.257362      52.003443    
     14300   300.92201      0.0143         1.6925458      0.041128529    0.10273798     541.18492      1227.0573     -16925.458      51.286983      50.194086      52.00857     
     14400   303.0952       0.0144         1.7668082     -0.023282232    0.028475526    975.84527      324.72762     -17668.082      51.250839      50.249601      52.013698    
     14500   297.34961      0.0145         1.7399171      0.0045025883   0.055366649    199.39496      611.45598     -17399.171      51.286506      50.204543      52.018826    
     14600   297.84163      0.0146         1.8043486     -0.054404729    0              225.93989      44.262373     -18043.486      51.264863      50.235124      52.023953    
     14700   303.79161      0.0147         1.8171084     -0.062203341    0             -224.67306     -364.13802     -18171.084      51.292993      50.222201      52.029081    
     14800   300.30678      0.0148         1.850855      -0.090392768    0             -681.92991     -803.77221     -18508.55       51.290426      50.230799      52.034208    
     14900   297.49977      0.0149         1.9144286     -0.13582522     0             -1158.9672     -1082.3995     -19144.286      51.293213      50.238563      52.039336    
     15000   302.99155      0.015          1.8920731     -0.10141616     0.022355534   -1583.9011     -1091.6812     -18920.731      51.3247        50.209837      52.044463    
     15100   299.29856      0.0151         1.94     14400   303.0952       0.0144         1.7668082     -0.023282232    0.028475526    975.84527      324.72762     -17668.082      51.250839      50.249601      52.013698    
     14500   297.34961      0.0145         1.7399171      0.0045025883   0.055366649    199.39496      611.45598     -17399.171      51.286506      50.204543      52.018826    
     14600   297.84163      0.0146         1.8043486     -0.054404729    0              225.93989      44.262373     -18043.486      51.264863      50.235124      52.023953    
     14700   303.79161      0.0147         1.8171084     -0.062203341    0             -224.67306     -364.13802     -18171.084      51.292993      50.222201      52.029081    
     14800   300.30678      0.0148         1.850855      -0.090392768    0             -681.92991     -803.77221     -18508.55       51.290426      50.230799      52.034208    
     14900   297.49977      0.0149         1.9144286     -0.13089     -18497.759      51.271246      50.160935      52.075228    
     15700   301.05182      0.0157         1.8387521      0.038237451    0.10539216     745.79095      1025.0516     -18387.521      51.272894      50.163055      52.080356    
     15800   302.80661      0.0158         1.911671      -0.028599856    0.032473251    824.89658      380.00348     -19116.71       51.258199      50.190678      52.085483    
     15900   297.07581      0.0159         1.9293788     -0.044812674    0.014765416    109.46132      402.79256     -19293.788      51.291715      50.158832      52.090611    
     16000   300.10799      0.016          1.9282449     -0.040061611    0.015899297    12.820649     -299.3884      -19282.449      51.281661      50.180267      52.095739    
     16100   299.08265      0.0161         1.9911315     -0.098249498    0             -483.96909     -307.77318     -19911.315      51.290908      50.173136      52.100866    
     16200   299.35167      0.0162         2.0169865     -0.11096054     0             -783.87049     -724.70246     -20169.865      51.297546      50.17329       52.105994    
     16300   300.43932      0.0163         2.0576585     -0.13828375     0             -1310.9128     -861.74542     -20576.585      51.314581      50.174164      52.111121    
     16400   298.93915      0.0164         2.1005158     -0.15114683     0             -1530.2441     -1486.3996     -21005.158      51.309485      50.189415      52.116249    
     16500   299.83519      0.0165         2.0648258     -0.095931746    0.035690004   -1381.717      -1080.7881     -20648.258      51.320951      50.15819       52.121376    
     16600   303.04332      0.0166         2.0421647     -0.054031707    0.058351166   -37.904403     -507.61953     -20421.647      51.273928      50.17206       52.126504    
     16700   300.75283      0.0167         1.9501366      0.049134842    0.15037926     806.63929      1022.7352     -19501.366      51.281678      50.121962      52.131631    
     16800   298.03741      0.0168         1.9748303      0.030757065    0.12568556     1711.0046      908.91333     -19748.303      51.248767      50.135872      52.136759    
     16900   298.686        0.0169         1.9573514      0.051033202    0.14316443     1442.3         1309.3886     -19573.514      51.267788      50.109419      52.141886    
     17000   305.42403      0.017          1.9954486      0.019656376    0.10506724     1086.4997      1015.1101     -19954.486      51.268726      50.11724       52.147014    
     17100   296.79885      0.0171         2.029276      -0.010356577    0.071239844    978.398        553.53025     -20292.76       51.267981      50.123264      52.152141    
     17200   301.20331      0.0172         2.0667547     -0.042858461    0.033761135    128.52763      108.27586     -20667.547      51.293819      50.115236      52.157269    
     17300   297.10996      0.0173         2.1136759     -0.084177928    0             -55.102414     -250.70522     -21136.759      51.284362      50.141834      52.162396    
     17400   300.21051      0.0174         2.1516647     -0.11705184       0.0167         1.9501366      0.049134842    0.15037926     806.63929      1022.7352     -19501.366      51.281678      50.121962      52.131631    
     16800   298.03741      0.0168         1.9748303      0.030757065    0.12568556     1711.0046      908.91333     -19748.303      51.248767      50.135872      52.136759    
     16900   298.686        0.0169         1.9573514      0.051033202    0.14316443     1442.3         1309.3886     -19573.514      51.267788      50.109419      52.141886    
     17000   305.42403      0.017          1.9954486      0.019656376    0.10506724     1086.4997      1015.1101     -19954.486      51.268726      50.11724       52.147014    
     17100   296.79885      0.0171         2.029276      -0.010356577    0.071239844    978.398        553.53025     -20292.76       51.267981      50.123264      52.152141    
     17200   301.20331      0.0172         2.0667547     -0.042858461    0.033761135   1.32084       50.064337      52.193162    
     18000   299.87106      0.018          2.1726161     -0.022951516    0.065526728    1406.603       289.93023     -21726.161      51.23613       50.130313      52.198289    
     18100   297.6277       0.0181         2.0776182      0.076880599    0.16052462     1148.5826      1651.9298     -20776.182      51.28853       50.042452      52.203417    
     18200   298.17972      0.0182         2.135856       0.025552915    0.10228681     1719.0356      678.04885     -21358.56       51.238467      50.100178      52.208544    
     18300   303.18672      0.0183         2.1433839      0.020995762    0.094758856    881.03626      1352.6443     -21433.839      51.278666      50.060369      52.213672    
     18400   296.51461      0.0184         2.1887166     -0.020631759    0.04942614     1048.1839      470.6111      -21887.166      51.265811      50.080176      52.218799    
     18500   300.85856      0.0185         2.214243      -0.044639207    0.023899783    436.04183      412.73477     -22142.43       51.276093      50.079401      52.223927    
     18600   299.24546      0.0186         2.2484684     -0.07436571     0             -300.66044      45.042267     -22484.684      51.304988      50.072061      52.229054    
     18700   297.42183      0.0187         2.3133622     -0.12870564     0             -896.70873     -780.15292     -23133.622      51.298661      50.094434      52.234182    
     18800   297.56084      0.0188         2.3645828     -0.16728228     0             -1455.7058     -1214.2447     -23645.828      51.316661      50.087882      52.239309    
     18900   303.19773      0.0189         2.3399231     -0.12004605     0.024659715   -1629.84       -1092.7319     -23399.231      51.317724      50.086369      52.244437    
     19000   297.69343      0.019          2.3692433     -0.12970353     0             -974.07781     -1064.2341     -23692.433      51.296452      50.095366      52.249565    
     19100   295.22132      0.0191         2.2749107     -0.015641707    0.094332567   -585.84814      109.04972     -22749.107      51.316861      50.034587      52.254692    
     19200   298.59986      0.0192         2.2776569     -0.0042078487   0.091586328    1069.8616      349.10335     -22776.569      51.256317      50.070883      52.25982     
     19300   302.21648      0.0193         2.2200135      0.061098578    0.1492298      1326.0404      1847.5738     -22200.135      51.284643      49.999794      52.264947    
     19400   299.39601      0.0194         2.2639591      0.024677174    0.10528415     2383.7605      1400.3821     -22639.591      51.239409      50.039381      52.270075    
     19500   303.11552      0.0195         2.2075274      0.08043735     0.16171589     1695.5375      1588.0837     -22075.274      51.271221      50.009258      52.275202    
     19600   300.68936      0.0196         2.2844301      0.0071307889   0.084813158    1206.0816      898.83812     -22844.301      51.263677      50.0312        52.28033     
     19700   301.05912      0.0197         2.3083364     -0.017278052    0.060906894    548.3809733     -0.12970353     0             -974.07781     -1064.2341     -23692.433      51.296452      50.095366      52.249565    
     19100   295.22132      0.0191         2.2749107     -0.015641707    0.094332567   -585.84814      109.04972     -22749.107      51.316861      50.034587      52.254692    
     19200   298.59986      0.0192         2.2776569     -0.0042078487   0.091586328    1069.8616      349.10335     -22776.569      51.256317      50.070883      52.25982     
     19300   302.21648      0.0193         2.2200135      0.061098578    0.1492298      1326.0404      1847.5738     -22200.135      51.284643      49.999794      52.264947    
     19400   299.39601      0.0194         2.2639591      0.024677174    0.10528415     2383.7605      1400.3821     -22639.591      51.239409      50.039381      52.270075    
     19500   303.11552      0.0195         2.2075274      0.08043735     0.16171589     1695.5375      1588.0837    52.311095    
     20300   303.22149      0.0203         2.4956637     -0.12791682     0             -536.70779     -640.46696     -24956.637      51.288398      50.048873      52.316222    
     20400   300.73914      0.0204         2.4529208     -0.066277821    0.042742827   -225.58257     -275.52025     -24529.208      51.296014      50.013373      52.32135     
     20500   299.81036      0.0205         2.3801404      0.023763907    0.11552325     278.32435      562.39554     -23801.404      51.288595      49.997776      52.326478    
     20600   302.05705      0.0206         2.4442641     -0.024376367    0.051399583    1162.5756     -1.8539688     -24442.641      51.244681      50.040378      52.331605    
     20700   299.33109      0.0207         2.3832022      0.044172129    0.1124615      489.7665       1075.0843     -23832.022      51.303719      49.956266      52.336733    
     20800   303.09784      0.0208         2.4834711     -0.045559888    0.012192512    1028.4151     -336.72345     -24834.711      51.239529      50.043432      52.34186     
     20900   302.82494      0.0209         2.414503       0.021720882    0.081160665   -62.911758      924.57703     -24145.03       51.312928      49.955186      52.346988    
     21000   297.38781      0.021          2.5261276     -0.07896433     0              667.29755     -314.58672     -25261.276      51.260185      50.025937      52.352115    
     21100   302.74789      0.0211         2.499899      -0.050040606    0.02622855    -637.27637      26.014395     -24998.99       51.313178      49.969809      52.357243    
     21200   301.1059       0.0212         2.5690762     -0.10414941     0             -571.1668      -588.05804     -25690.762      51.285071      50.017435      52.36237     
     21300   299.67195      0.0213         2.5639527     -0.092196969    0.0051235351  -892.4689      -600.55929     -25639.527      51.318316      49.980684      52.367498    
     21400   295.66502      0.0214         2.5660942     -0.083021125    0.0029820455  -835.65309     -570.54415     -25660.942      51.30746       49.98507       52.372625    
     21500   300.57458      0.0215         2.61356       -0.10714499     0             -443.35228     -863.70153     -26135.6        51.277725      50.021691      52.377753    
     21600   299.67047      0.0216         2.5176784     -0.0039219669   0.095881586   -847.48391      531.08952     -25176.784      51.33189       49.93061       52.38288     
     21700   297.50442      0.0217         2.6097353     -0.073325599    0.0038246344   958.18558     -602.44634     -26097.353      51.239224      50.014746      52.388008    
     21800   298.62779      0.0218         2.4438877      0.08856373     0.16967231     237.63868      1345.6613     -24438.877      51.329869      49.890946      52.393135    
     21900   299.12491      0.0219         2.5937835     -0.043404052    0.019776477    1708.1955      132.82008     -25937.835      51.225988      50.003467      52.398263    
     22000   299.28025      0.022          2.5099884      0.038777164    0.10357161     467.21756      1563.7995     -25090051235351  -892.4689      -600.55929     -25639.527      51.318316      49.980684      52.367498    
     21400   295.66502      0.0214         2.5660942     -0.083021125    0.0029820455  -835.65309     -570.54415     -25660.942      51.30746       49.98507       52.372625    
     21500   300.57458      0.0215         2.61356       -0.10714499     0             -443.35228     -863.70153     -26135.6        51.277725      50.021691      52.377753    
     21600   299.67047      0.0216         2.5176784     -0.0039219669   0.095881586   -847.48391      531.08952     -25176.784      51.33189       49.93061       52.38288     
     21700   297.50442      0.0217         2.6097353     -0.073325599    0.0038246344   958.18558     -602.44634     -26097.353      51.239224      50.014746      52.388008    
     21800   298.62779      0.0218         2.4438877      0.08856373     0.16967231     237.63868      1345.6613     -24438.877      51.3600   296.95413      0.0226         2.7125129     -0.11397776     0             -634.66164     -905.66579     -27125.129      51.289142      49.967345      52.434156    
     22700   299.71309      0.0227         2.6727745     -0.067935428    0.039738417   -1077.3198     -151.01848     -26727.745      51.329865      49.908835      52.439283    
     22800   304.90002      0.0228         2.7650795     -0.12812128     0             -231.63598     -1040.8134     -27650.795      51.278241      49.978742      52.444411    
     22900   299.52156      0.0229         2.6634405     -0.019516599    0.10163897    -685.00496      430.17383     -26634.405      51.323618      49.895601      52.449538    
     23000   298.17986      0.023          2.7208562     -0.055845523    0.044223262    678.91788     -134.6213      -27208.562      51.259229      49.948211      52.454666    
     23100   301.07004      0.0231         2.6143407      0.050297363    0.15073882     905.11842      1373.9122     -26143.407      51.282386      49.888343      52.459793    
     23200   299.08187      0.0232         2.6053139      0.063502491    0.15976558     2058.6954      1384.159      -26053.139      51.261344      49.888939      52.464921    
     23300   303.53684      0.0233         2.6291012      0.040339772    0.13597828     1812.5953      1239.8561     -26291.012      51.253114      49.891829      52.470048    
     23400   298.73618      0.0234         2.6441499      0.023832363    0.12092961     1057.7319      1419.4655     -26441.499      51.285975      49.872741      52.475176    
     23500   301.86585      0.0235         2.6975219     -0.025012792    0.067557582    651.35765      403.89242     -26975.219      51.277992      49.907728      52.480304    
     23600   303.19136      0.0236         2.7770865     -0.098119963    0             -370.5414      -149.02361     -27770.865      51.303794      49.893437      52.485431    
     23700   293.5728       0.0237         2.8073733     -0.11494695     0             -799.74933     -683.08452     -28073.733      51.304197      49.909755      52.490559    
     23800   302.16152      0.0238         2.8459093     -0.14539993     0             -1504.9631     -1334.6281     -28459.093      51.325275      49.908419      52.495686    
     23900   300.437        0.0239         2.884396      -0.16179109     0             -1828.3915     -1362.6796     -28843.96       51.331912      49.90171       52.500814    
     24000   295.67685      0.024          2.8777627     -0.13946714     0.006633305   -1579.637      -1200.0618     -28777.627      51.322134      49.904717      52.505941    
     24100   298.98699      0.0241         2.860077      -0.097207817    0.024318997   -1300.0622     -660.69779     -28600.77       51.320552      49.89247       52.511069    
     24200   295.65445      0.0242         2.8382475     -0.052085005    0.046148449   -166.20949     -572.39623     -28382.475      51.291287      49.891659      52.516196    
     24300   298.3567       0.0243         2.8015436      0.0018631847   0.082852403    419.70694      457.04425     -28015.436      51.296054       -149.02361     -27770.865      51.303794      49.893437      52.485431    
     23700   293.5728       0.0237         2.8073733     -0.11494695     0             -799.74933     -683.08452     -28073.733      51.304197      49.909755      52.490559    
     23800   302.16152      0.0238         2.8459093     -0.14539993     0             -1504.9631     -1334.6281     -28459.093      51.325275      49.908419      52.495686    
     23900   300.437        0.0239         2.884396      -0.16179109     0             -1828.3915     -1362.6796     -28843.96       51.331912      49.90171       52.500814    
     24000   295.67685      0.024          2.8777627     -0.13946714     0.006633305   -1579.637      -1200.0618     -28777.627      51.322134      49.904717      52.505941    
     24100   298.98699      0.0241         2.860077      -0.097207817    0.024318997   -1300.0622     -660.69779     -28600.77       51.320552      49.89247      49         2.9017127     -0.077728769    0             -567.36663     -256.25953     -29017.127      51.312311      49.843032      52.552089    
     25000   297.77866      0.025          2.9833216     -0.14878175     0             -1263.0475     -1349.8892     -29833.216      51.314234      49.88086       52.557217    
     25100   301.18772      0.0251         2.9883382     -0.14097227     0             -2154.1755     -1455.7678     -29883.382      51.352368      49.84685       52.562344    
     25200   297.07741      0.0252         3.0525196     -0.1837265      0             -1425.3757     -1868.7024     -30525.196      51.30035       49.893742      52.567472    
     25300   295.67297      0.0253         2.9615327     -0.076740615    0.090986975   -1159.4633     -487.23846     -29615.327      51.32703       49.822233      52.572599    
     25400   298.16416      0.0254         2.9514127     -0.049353962    0.10110691    -239.3897      -443.38048     -29514.127      51.300857      49.841937      52.577727    
     25500   301.27952      0.0255         2.9415699     -0.022082575    0.11094977     148.0308      -72.221062     -29415.699      51.302782      49.823599      52.582854    
     25600   295.63483      0.0256         2.9325256      0.004347779    0.11999406     267.01883      247.03729     -29325.256      51.288524      49.818952      52.587982    
     25700   303.32743      0.0257         2.9329431      0.015883441    0.11957655     308.95957      212.98244     -29329.431      51.290378      49.819063      52.593109    
     25800   301.86273      0.0258         2.9492146      0.010294488    0.10330507     290.36945      495.021       -29492.146      51.299906      49.804356      52.598237    
     25900   299.98008      0.0259         2.9971378     -0.028086222    0.055381847    388.43955      166.58398     -29971.378      51.28488       49.81954       52.603364    
     26000   303.08013      0.026          2.9741709     -0.0060344317   0.0783487     -221.89288      187.96285     -29741.709      51.3249        49.78421       52.608492    
     26100   302.65337      0.0261         3.043444      -0.069796929    0.0090756206  -57.946136     -728.81575     -30434.44       51.28719       49.832535      52.613619    
     26200   298.49651      0.0262         3.0251026     -0.054197181    0.027417076   -889.56045     -46.524613     -30251.026      51.333155      49.781391      52.618747    
     26300   302.09369      0.0263         3.0855077     -0.10220486     0             -607.14372     -864.20391     -30855.077      51.305701      49.822561      52.623874    
     26400   299.01372      0.0264         3.0500589     -0.056891416    0.035448824   -892.56815     -422.53314     -30500.589      51.332081      49.783565      52.629002    
     26500   295.63441      0.0265         3.0714403     -0.065285725    0.014067475   -215.76559     -228.20993     -30714.403      51.304156      49.793689      52.63413     
     26600   301.32158      0.0266         3.0730693     -0.052860412    0.012438412    180.19618     -169.72584     -30730.693      51.295222      49.792304      52.63925778      51.28488       49.81954       52.603364    
     26000   303.08013      0.026          2.9741709     -0.0060344317   0.0783487     -221.89288      187.96285     -29741.709      51.3249        49.78421       52.608492    
     26100   302.65337      0.0261         3.043444      -0.069796929    0.0090756206  -57.946136     -728.81575     -30434.44       51.28719       49.832535      52.613619    
     26200   298.49651      0.0262         3.0251026     -0.054197181    0.027417076   -889.56045     -46.524613     -30251.026      51.333155      49.781391      52.618747    
     26300   302.09369      0.0263         3.0855077     -0.10220486     0             -607.14372     -864.20391     -30855.077      51.305701      49.822561      52.623874    
     26400   299.01372      0.0264         3.0500589     -0.056891416    0.035448824   -892.56815     -422.53314     -30500.589      51.332081      49.783565      52.629002    
     26500-0.058932104    0             -53.049011      183.28186     -31283.443      51.306363      49.757485      52.670022    
     27300   297.35086      0.0273         3.1612357     -0.084250735    0             -229.28034     -448.17233     -31612.357      51.297193      49.772363      52.67515     
     27400   297.09489      0.0274         3.1443857     -0.057968031    0.016850025   -588.91487     -282.77442     -31443.857      51.310778      49.765954      52.680277    
     27500   303.4295       0.0275         3.1936963     -0.095052976    0             -1116.4926     -671.79907     -31936.963      51.328173      49.758296      52.685405    
     27600   298.59531      0.0276         3.2138117     -0.10109422     0             -1048.2854     -799.53292     -32138.117      51.309578      49.773614      52.690532    
     27700   298.65425      0.0277         3.2058611     -0.075081537    0.0079506114  -735.47586     -547.03278     -32058.611      51.324079      49.747033      52.69566     
     27800   302.63203      0.0278         3.16872       -0.027134081    0.045091735   -148.98579      49.494921     -31687.2        51.310028      49.738264      52.700787    
     27900   295.68978      0.0279         3.164813      -0.0098070114   0.048998715    683.958        281.38221     -31648.13       51.27962       49.74585       52.705915    
     28000   302.91347      0.028          3.1129394      0.045824728    0.10087237     610.90112      809.49651     -31129.394      51.311628      49.697259      52.711043    
     28100   302.31785      0.0281         3.1753277     -0.0084141624   0.038484085    1015.3283      204.19484     -31753.277      51.271166      49.745626      52.71617     
     28200   300.74033      0.0282         3.1701526      0.00094172183  0.04365914     191.46092      536.70922     -31701.526      51.313925      49.699964      52.721298    
     28300   299.12779      0.0283         3.2491364     -0.069252001    0              179.00768     -55.40732      -32491.364      51.291395      49.734492      52.726425    
     28400   298.72249      0.0284         3.2071786     -0.021014924    0.041957788   -331.04901      33.25088      -32071.786      51.318096      49.71278       52.731553    
     28500   299.76767      0.0285         3.2943783     -0.098146433    0             -462.37471     -340.29817     -32943.783      51.311578      49.725582      52.73668     
     28600   301.043        0.0286         3.2840396     -0.08078494     0.010338706   -773.08799     -779.08267     -32840.396      51.319716      49.719306      52.741808    
     28700   298.89671      0.0287         3.2774283     -0.067016877    0.016950056   -839.9437      -406.98946     -32774.283      51.323345      49.71526       52.746935    
     28800   299.79354      0.0288         3.3131287     -0.088276479    0             -478.88606     -377.49804     -33131.287      51.312412      49.715819      52.752063    
     28900   299.93668      0.0289         3.2788063     -0.042554683    0.034322473   -189.74724     -27.116121     -32788.063      51.315339      49.689117      52.75719     
     29000   300.394.699964      52.721298    
     28300   299.12779      0.0283         3.2491364     -0.069252001    0              179.00768     -55.40732      -32491.364      51.291395      49.734492      52.726425    
     28400   298.72249      0.0284         3.2071786     -0.021014924    0.041957788   -331.04901      33.25088      -32071.786      51.318096      49.71278       52.731553    
     28500   299.76767      0.0285         3.2943783     -0.098146433    0             -462.37471     -340.29817     -32943.783      51.311578      49.725582      52.73668     
     28600   301.043        0.0286         3.2840396     -0.08078494     0.010338706   -773.08799     -779.08267     -32840.396      51.319716      49.719306      52.741808    
     28700   298.89671      0.0287         3.2774283     -0.067016877    0.016950056   -839.9437      -406.98946     -32774.283      51.323345      49.71526       52.746935    
     28800   299.79354      0.0288 84   -271.60605      175.97281     -32952.199      51.320565      49.663626      52.787956    
     29600   296.16679      0.0296         3.4027037     -0.12349093     0             -539.60874     -674.14387     -34027.037      51.312011      49.691619      52.793083    
     29700   301.09478      0.0297         3.3793438     -0.089939489    0.02335988    -1097.7326     -508.76946     -33793.438      51.340375      49.668303      52.798211    
     29800   300.44313      0.0298         3.3792041     -0.083192177    0.02349966    -662.39762     -544.26941     -33792.041      51.322974      49.675397      52.803338    
     29900   302.06808      0.0299         3.4055062     -0.096824303    0             -529.61535     -311.57848     -34055.062      51.321873      49.660112      52.808466    
     30000   304.46811      0.03           3.3769324     -0.056211354    0.02857374    -108.52253     -106.4526      -33769.324      51.320476      49.657349      52.813593    
     30100   302.32365      0.0301         3.3823383     -0.043247107    0.023167875    488.06972      335.52487     -33823.383      51.303365      49.648965      52.818721    
     30200   302.65966      0.0302         3.3378769      0.0097757964   0.067629295    824.59561      733.25823     -33378.769      51.302849      49.628625      52.823848    
     30300   303.67318      0.0303         3.3154794      0.040881719    0.09002675     1176.9986      946.44068     -33154.794      51.28836       49.634832      52.828976    
     30400   302.03003      0.0304         3.3224774      0.037230828    0.083028798    1293.0771      830.33065     -33224.774      51.291878      49.624517      52.834103    
     30500   301.89948      0.0305         3.3971423     -0.02724186     0.0083638638   853.93996      437.9706      -33971.423      51.284285      49.641321      52.839231    
     30600   297.7022       0.0306         3.4122819     -0.041423665    0              346.16491      49.776109     -34122.819      51.311162      49.625779      52.844358    
     30700   303.45237      0.0307         3.4599148     -0.080999417    0             -794.15818     -558.40064     -34599.148      51.33928       49.626386      52.849486    
     30800   299.17764      0.0308         3.5247836     -0.13131024     0             -1006.151      -1031.8888     -35247.836      51.330877      49.650106      52.854613    
     30900   298.90905      0.0309         3.4974458     -0.094778531    0.027337742   -1717.6792     -814.37634     -34974.458      51.361452      49.611297      52.859741    
     31000   301.39789      0.031          3.554209      -0.13381407     0             -1100.1655     -1224.5702     -35542.09       51.327293      49.651317      52.864869    
     31100   303.10481      0.0311         3.4959276     -0.064173738    0.058281401   -991.65835     -501.69049     -34959.276      51.346481      49.600697      52.869996    
     31200   296.32778      0.0312         3.492591      -0.045365675    0.061618056    388.0009      -213.63381     -34925.91       51.300055      49.62325       52.875124    
     31300   300.67531      0.0313         3. 
     30600   297.7022       0.0306         3.4122819     -0.041423665    0              346.16491      49.776109     -34122.819      51.311162      49.625779      52.844358    
     30700   303.45237      0.0307         3.4599148     -0.080999417    0             -794.15818     -558.40064     -34599.148      51.33928       49.626386      52.849486    
     30800   299.17764      0.0308         3.5247836     -0.13131024     0             -1006.151      -1031.8888     -35247.836      51.330877      49.650106      52.854613    
     30900   298.90905      0.0309         3.4974458     -0.094778531    0.027337742   -1717.6792     -814.37634     -34974.458      51.361452      49.611297      52.859741    
     31000   301.39789      0.031          3.554209      -0.13381407     0             -1100.1655     -1224.5702     -35542.09       51.327293      49.651317      52.864869    
     31100   303.10481      0.0311         3.4959276     -0.86043     -35420.796      51.342748      49.563965      52.905889    
     31900   297.05916      0.0319         3.6466311     -0.15795143     0             -1273.9057     -1332.8212     -36466.311      51.332156      49.622943      52.911016    
     32000   297.33818      0.032          3.6789905     -0.17783275     0             -2407.7074     -1687.6663     -36789.905      51.362461      49.605579      52.916144    
     32100   295.4329       0.0321         3.6270477     -0.11277794     0.0519428     -2249.6122     -1523.7228     -36270.477      51.372083      49.587246      52.921271    
     32200   300.97861      0.0322         3.6470048     -0.11729358     0.031985776   -1182.0558     -1263.3872     -36470.048      51.3336        49.603703      52.926399    
     32300   298.76495      0.0323         3.5745832     -0.029194813    0.10440739    -314.41759     -415.29208     -35745.832      51.327588      49.562045      52.931526    
     32400   301.54355      0.0324         3.5711129     -0.0087705082   0.10787763     351.30419      64.494478     -35711.129      51.305373      49.565903      52.936654    
     32500   299.9794       0.0325         3.5193279      0.052331671    0.15966267     788.1668       752.33301     -35193.279      51.307227      49.540062      52.941782    
     32600   305.83955      0.0326         3.5526636      0.033996903    0.12632693     1071.0871      530.02493     -35526.636      51.292289      49.557398      52.946909    
     32700   299.3698       0.0327         3.5371807      0.052481508    0.14180985     1240.0348      1000.0035     -35371.807      51.302013      49.532127      52.952037    
     32800   300.82761      0.0328         3.596987      -0.0018340737   0.082003533    828.53021      735.50131     -35969.87       51.295002      49.546347      52.957164    
     32900   302.38798      0.0329         3.6101839     -0.018675688    0.068806635    114.89859      267.75959     -36101.839      51.314596      49.547116      52.962292    
     33000   302.53562      0.033          3.6881691     -0.095742984    0             -704.24813     -598.6006      -36881.691      51.333739      49.552665      52.967419    
     33100   300.79084      0.0331         3.7530363     -0.14801138     0             -1386.2337     -1446.2407     -37530.363      51.330518      49.578657      52.972547    
     33200   299.34727      0.0332         3.7498723     -0.13456066     0.0031639634  -2371.1567     -1204.6356     -37498.723      51.377264      49.536942      52.977674    
     33300   304.24211      0.0333         3.7750424     -0.1396848      0             -1732.9947     -1744.1965     -37750.424      51.335903      49.577945      52.982802    
     33400   294.01796      0.0334         3.7094064     -0.060219439    0.065636009   -1016.0326     -311.30947     -37094.064      51.341939      49.527351      52.987929    
     33500   300.36573      0.0335         3.6782056     -0.013130862    0.096836813    271.75994      156.61931     -36782.056      51.30636       49.527746      52.993057    
     33600   298.82287      0.0336         3.6483693      0.026275971      0.0329         3.6101839     -0.018675688    0.068806635    114.89859      267.75959     -36101.839      51.314596      49.547116      52.962292    
     33000   302.53562      0.033          3.6881691     -0.095742984    0             -704.24813     -598.6006      -36881.691      51.333739      49.552665      52.967419    
     33100   300.79084      0.0331         3.7530363     -0.14801138     0             -1386.2337     -1446.2407     -37530.363      51.330518      49.578657      52.972547    
     33200   299.34727      0.0332         3.7498723     -0.13456066     0.0031639634  -2371.1567     -1204.6356     -37498.723      51.377264      49.536942      52.977674    
     33300   304.24211      0.0333         3.7750424     -0.1396848      0             -1732.9947     -1744.1965     -37750.424      51.335903      49.577945      52.982802    
     33400   294.01796      0.0334         3.7094064     -0.060219439    0.065636009  51.335998      49.497128      53.023822    
     34200   299.83315      0.0342         3.8022794     -0.095428297    0             -693.03269     -828.97962     -38022.794      51.324197      49.51847       53.02895     
     34300   303.56666      0.0343         3.7849707     -0.07712671     0.01730876    -1013.2577     -621.1794      -37849.707      51.346378      49.499722      53.034077    
     34400   300.02581      0.0344         3.8062833     -0.088751635    0             -790.54413     -589.16938     -38062.833      51.334276      49.502905      53.039205    
     34500   300.50824      0.0345         3.8228487     -0.090852708    0             -177.46028     -476.76326     -38228.487      51.315009      49.5034        53.044332    
     34600   299.88305      0.0346         3.7276916      0.01223659     0.095157073    160.31454      694.09495     -37276.916      51.338396      49.447256      53.04946     
     34700   300.9581       0.0347         3.758453      -0.0028650041   0.064395677    1408.9006      202.88522     -37584.53       51.26698       49.5046        53.054587    
     34800   305.28879      0.0348         3.7189267      0.040782085    0.10392196     736.31627      1598.0997     -37189.267      51.334952      49.414145      53.059715    
     34900   298.96616      0.0349         3.7815649     -0.011400391    0.041283721    1348.9979      437.93026     -37815.649      51.278217      49.489179      53.064842    
     35000   303.47196      0.035          3.800305      -0.023648207    0.022543626    87.394024      553.58931     -38003.05       51.32168       49.449706      53.06997     
     35100   303.37455      0.0351         3.8170952     -0.035053385    0.0057534237   46.814405     -80.286036     -38170.952      51.321233      49.469574      53.075097    
     35200   296.83445      0.0352         3.8549322     -0.067625105    0             -189.02556     -157.40017     -38549.322      51.314021      49.475923      53.080225    
     35300   298.66504      0.0353         3.8574316     -0.062878391    0             -464.36449     -214.1511      -38574.316      51.343482      49.447901      53.085352    
     35400   302.66527      0.0354         3.8641309     -0.063792929    0             -200.8372      -641.2866      -38641.309      51.317495      49.478847      53.09048     
     35500   300.71489      0.0355         3.8288777     -0.027936837    0.035253184   -528.27787      23.982115     -38288.777      51.344897      49.440858      53.095608    
     35600   300.89964      0.0356         3.8960462     -0.078269792    0              60.265582     -145.5443      -38960.462      51.31678       49.456004      53.100735    
     35700   299.39593      0.0357         3.8558844     -0.028364927    0.04016172     326.37178      278.93949     -38558.844      51.310893      49.444165      53.105863    
     35800   302.026        0.0358         3.8213133      0.016444896    0.074732888    442.59125      399.74673     -38213.133      51.312743      49.435147      53.11099     
     35900   300.01293      0.0359         3.8736937     -0.026722622    0.022352499    802.9759322     -0.067625105    0             -189.02556     -157.40017     -38549.322      51.314021      49.475923      53.080225    
     35300   298.66504      0.0353         3.8574316     -0.062878391    0             -464.36449     -214.1511      -38574.316      51.343482      49.447901      53.085352    
     35400   302.66527      0.0354         3.8641309     -0.063792929    0             -200.8372      -641.2866      -38641.309      51.317495      49.478847      53.09048     
     35500   300.71489      0.0355         3.8288777     -0.027936837    0.035253184   -528.27787      23.982115     -38288.777      51.344897      49.440858      53.095608    
     35600   300.89964      0.0356         3.8960462     -0.078269792    0              60.265582     -145.5443      -38960.462      51.31678       49.456004      53.100735    
     35700   299.39593      0.0357         3.8558844     -0.028364927    0.04016172     326.37178      278.939      53.141755    
     36500   302.63717      0.0365         3.9682853     -0.068394699    0.0031576549  -484.67833     -719.64742     -39682.853      51.336183      49.425263      53.146883    
     36600   300.2949       0.0366         3.9534661     -0.047833494    0.017976868   -534.12988     -140.0668      -39534.661      51.350451      49.39551       53.15201     
     36700   299.77803      0.0367         3.9982866     -0.078413768    0             -196.38313     -553.75385     -39982.866      51.320862      49.418647      53.157138    
     36800   301.14867      0.0368         3.9469901     -0.014549582    0.051296506   -104.62454      393.53771     -39469.901      51.347492      49.373619      53.162265    
     36900   300.13417      0.0369         3.9909643     -0.046796738    0.007322288    815.74859     -14.390406     -39909.643      51.300926      49.410289      53.167393    
     37000   298.98032      0.037          3.9373814      0.01798131     0.06090515     601.68712      918.58467     -39373.814      51.329777      49.353513      53.172521    
     37100   300.98589      0.0371         3.9334079      0.023412408    0.064878639    833.8564       509.11127     -39334.079      51.317435      49.374701      53.177648    
     37200   301.85315      0.0372         3.9743486     -0.011302525    0.023937923    364.0448       189.97867     -39743.486      51.322439      49.37361       53.182776    
     37300   297.79653      0.0373         3.9933214     -0.028087441    0.0049651614  -126.6047       166.73543     -39933.214      51.351776      49.346341      53.187903    
     37400   303.95493      0.0374         4.1096793     -0.12906624     0             -436.26287     -1341.2203     -41096.793      51.321325      49.422892      53.193031    
     37500   297.9376       0.0375         4.0308225     -0.043955717    0.078856801   -1483.9403     -272.33779     -40308.225      51.393422      49.330256      53.198158    
     37600   301.6978       0.0376         4.1226875     -0.11889857     0             -714.11346     -1200.2795     -41226.875      51.331394      49.398704      53.203286    
     37700   300.44271      0.0377         4.0511489     -0.042073731    0.071538602   -562.73002     -246.80101     -40511.489      51.347335      49.364441      53.208413    
     37800   297.30632      0.0378         4.0461839     -0.027189261    0.076503693   -120.25562     -39.965495     -40461.839      51.338405      49.353228      53.213541    
     37900   297.7028       0.0379         4.0266269     -0.0040660322   0.096060662    114.14812      83.857462     -40266.269      51.323453      49.35784       53.218668    
[...]
     62200   299.18109      0.0622         5.4663842      0.00070871443  0.04847005    -299.9008       219.24065     -54663.842      51.452303      48.340677      54.464659    
     62300   301.2977       0.0623         5.5057285     -0.029722383    0.009125761    78.564428     -76.363831     -55057.285      51.434675      48.367532      54.469786    
     62400   302.06395      0.0624         5.5410463     -0.059577205    0              9.8846902     -92.355821     -55410.463      51.426141      48.36621       54.474914    
     62500   296.98756      0.0625         5.4508892      0.029281437    0.090157055    249.15851      427.91838     -54508.892      51.443552      48.333182      54.480042    
     62600   304.59874      0.0626         5.5184735     -0.030360054    0.022572767    675.32617     -144.13489     -55184.735      51.408274      48.372012      54.485169    
     62700   298.76911      0.0627         5.4368414      0.046394683    0.10420484     155.4968       538.44623     -54368.414      51.454536      48.305013      54.490297    
     62800   299.71885      0.0628         5.5210818     -0.033604789    0.019964537    44.562103      32.325335     -55210.818      51.429036      48.349615      54.495424    
     62900   304.45021      0.0629         5.5599804     -0.066850281    0             -463.15283     -629.13864     -55599.804      51.437509      48.362892      54.500552    
     63000   298.88993      0.063          5.467785       0.030521481    0.092195436   -1071.8188      275.45526     -54677.85       51.493567      48.281336      54.505679    
     63100   297.98592      0.0631         5.5705323     -0.066658022    0              365.79924     -750.58616     -55705.323      51.392452      48.387933      54.510807    
     63200   301.76965      0.0632         5.4406482      0.060652497    0.12988412    -123.39768      492.93332     -54406.482      51.46985       48.275883      54.515934    
     63300   304.12537      0.0633         5.4797127      0.018986406    0.090819612    547.32742     -91.278618     -54797.127      51.421213      48.338989      54.521062    
     63400   300.84401      0.0634         5.5269351     -0.029647138    0.043597188    255.97174      180.45714     -55269.351      51.427257      48.320027      54.526189    
     63500   301.74109      0.0635         5.4693331      0.029799217    0.10119915    -8.8803811      530.6732      -54693.331      51.472037      48.253303      54.531317    
     63600   300.93025      0.0636         5.5245723     -0.024830121    0.045959933    304.10996     -236.48265     -55245.723      51.423987      48.327718      54.536444    
     63700   302.01013      0.0637       2    
     63000   298.88993      0.063          5.467785       0.030521481    0.092195436   -1071.8188      275.45526     -54677.85       51.493567      48.281336      54.505679    
     63100   297.98592      0.0631         5.5705323     -0.066658022    0              365.79924     -750.58616     -55705.323      51.392452      48.387933      54.510807    
     63200   301.76965      0.0632         5.4406482      0.060652497    0.12988412    -123.39768      492.93332     -54406.482      51.46985       48.275883      54.515934    
     63300   304.12537      0.0633         5.4797127      0.018986406    0.090819612    547.32742     -91.278618     -54797.127      51.421213      48.338989      54.521062    
     63400   300.84401      0.0634         5.5269351     -0.029647138    0.043597188    255.97174      180.45714     -55269.351      51.427257      48.320027      54.526189    
     63500   301.74109      0.0635         5.4693331    158.54029     -55092.109      51.443441      48.277828      54.56721     
     64300   299.72587      0.0643         5.4540049      0.050422528    0.11652742     94.528134      734.35765     -54540.049      51.461808      48.230067      54.572337    
     64400   300.23945      0.0644         5.5566862     -0.049283707    0.013846068    460.82931     -140.11976     -55566.862      51.414067      48.298602      54.577465    
     64500   302.68096      0.0645         5.4359503      0.068113943    0.134582      -93.45999       459.77188     -54359.503      51.470846      48.224412      54.582592    
     64600   302.11624      0.0646         5.5372017     -0.031874524    0.033330603   -67.766259     -369.82674     -55372.017      51.442694      48.281958      54.58772     
     64700   300.98469      0.0647         5.5755197     -0.063599731    0             -875.44313     -401.90029     -55755.197      51.463724      48.26102       54.592847    
     64800   296.7034       0.0648         5.5218942     -0.0080753787   0.053625491   -865.14617     -332.3953      -55218.942      51.479551      48.231436      54.597975    
     64900   301.87887      0.0649         5.6082013     -0.088052543    0             -470.50367     -706.78765     -56082.013      51.439552      48.283093      54.603102    
     65000   299.10237      0.065          5.4909785      0.032162596    0.1172228     -407.13529      353.15144     -54909.785      51.484237      48.207643      54.60823     
     65100   299.00034      0.0651         5.5506302     -0.026602443    0.05757108     549.43262     -4.9890911     -55506.302      51.432052      48.244759      54.613357    
     65200   300.55156      0.0652         5.4930488      0.029362723    0.11515245     567.14648      518.25413     -54930.488      51.447749      48.211065      54.618485    
     65300   299.86556      0.0653         5.4966814      0.029997822    0.11151989     629.84764      491.88065     -54966.814      51.450235      48.211187      54.623612    
     65400   299.75779      0.0654         5.6125583     -0.080291909    0              141.98558     -141.96199     -56125.583      51.441907      48.235386      54.62874     
     65500   300.40617      0.0655         5.5519584     -0.0080911759   0.060599917   -379.58213     -86.532024     -55519.584      51.482614      48.187191      54.633868    
     65600   302.34073      0.0656         5.5888622     -0.039828916    0.023696122   -338.24016     -536.62191     -55888.622      51.452402      48.234828      54.638995    
     65700   297.99325      0.0657         5.5692821     -0.02087251     0.043276288   -692.68827     -241.61917     -55692.821      51.478703      48.203265      54.644123    
     65800   293.45953      0.0658         5.610025      -0.05280237     0.0025333448  -600.36979     -319.89225     -56100.25       51.473471      48.200397      54.64925     
     65900   301.60591      0.0659         5.6193993     -0.061056836    0             -50.352853     -716.27128     -56193.993      51.428277      48.247892      54.654378    
     66000   300.76685      0.066          5.4844651      0.073225556      0.0653         5.4966814      0.029997822    0.11151989     629.84764      491.88065     -54966.814      51.450235      48.211187      54.623612    
     65400   299.75779      0.0654         5.6125583     -0.080291909    0              141.98558     -141.96199     -56125.583      51.441907      48.235386      54.62874     
     65500   300.40617      0.0655         5.5519584     -0.0080911759   0.060599917   -379.58213     -86.532024     -55519.584      51.482614      48.187191      54.633868    
     65600   302.34073      0.0656         5.5888622     -0.039828916    0.023696122   -338.24016     -536.62191     -55888.622      51.452402      48.234828      54.638995    
     65700   297.99325      0.0657         5.5692821     -0.02087251     0.043276288   -692.68827     -241.61917     -55692.821      51.478703      48.203265      54.644123    
     65800   293.45953      0.0658         5.610025      -0.05280237     0.002533     51.497516      48.144196      54.685143    
     66600   300.3844       0.0666         5.6639569     -0.078175663    0.030874046   -840.05617     -599.26533     -56639.569      51.467081      48.193681      54.69027     
     66700   302.11796      0.0667         5.5819199      0.0051251072   0.11291103    -302.56605     -261.10527     -55819.199      51.458971      48.181498      54.695398    
     66800   296.16655      0.0668         5.5734949      0.0098970669   0.121336      -156.4996       481.89916     -55734.949      51.48613       48.123306      54.700525    
     66900   300.37887      0.0669         5.597205      -0.016032441    0.097625924    753.57501     -308.91232     -55972.05       51.4249        48.187089      54.705653    
     67000   301.80705      0.067          5.529244       0.056406411    0.16558688     154.36997      1051.6185     -55292.44       51.477782      48.112093      54.710781    
     67100   296.24438      0.0671         5.6204045     -0.031739253    0.074426414    571.6023       246.88659     -56204.045      51.442233      48.160463      54.715908    
     67200   301.7779       0.0672         5.605542      -0.010437746    0.089288872   -120.4433      -37.801006     -56055.42       51.465845      48.151334      54.721036    
     67300   301.44492      0.0673         5.6373322     -0.030297162    0.057498662   -730.10648     -389.48169     -56373.322      51.496172      48.127461      54.726163    
     67400   298.40026      0.0674         5.6892163     -0.082742641    0.0056146479  -788.04889     -946.71122     -56892.163      51.463941      48.175853      54.731291    
     67500   302.64559      0.0675         5.6208938     -0.0089728506   0.073937109   -1308.247      -505.39165     -56208.938      51.512018      48.119418      54.736418    
     67600   300.58491      0.0676         5.6541675     -0.043225518    0.040663375   -148.04297     -455.24851     -56541.675      51.460996      48.156705      54.741546    
     67700   299.26564      0.0677         5.6438249     -0.026692388    0.051006001    499.61503      364.6842      -56438.249      51.447108      48.132696      54.746673    
     67800   301.25224      0.0678         5.5868095      0.031654504    0.10802144     749.70515      1051.2225     -55868.095      51.469786      48.079941      54.751801    
     67900   297.93456      0.0679         5.571448       0.044440281    0.12338291     1161.9538      505.6246      -55714.48       51.445646      48.11288       54.756928    
     68000   299.49201      0.068          5.6374058     -0.010701337    0.057425117    316.88031      247.47339     -56374.058      51.462494      48.102682      54.762056    
     68100   301.23886      0.0681         5.675316      -0.043120435    0.019514864   -587.73149     -113.71575     -56753.16       51.492322      48.09413       54.767183    
     68200   301.6893       0.0682         5.6987882     -0.057268       0             -508.43987     -382.4345      -56987.882      51.476513      48.119551      54.772311    
     68300   297.80106      0.0683         5.6425207     -0.00048163924  0.056267514   -623.6541675     -0.043225518    0.040663375   -148.04297     -455.24851     -56541.675      51.460996      48.156705      54.741546    
     67700   299.26564      0.0677         5.6438249     -0.026692388    0.051006001    499.61503      364.6842      -56438.249      51.447108      48.132696      54.746673    
     67800   301.25224      0.0678         5.5868095      0.031654504    0.10802144     749.70515      1051.2225     -55868.095      51.469786      48.079941      54.751801    
     67900   297.93456      0.0679         5.571448       0.044440281    0.12338291     1161.9538      505.6246      -55714.48       51.445646      48.11288       54.756928    
     68000   299.49201      0.068          5.6374058     -0.010701337    0.057425117    316.88031      247.47339     -56374.058      51.462494      48.102682      54.762056    
     68100   301.23886      0.0681         5.675316      -0.043120435    0.019514864   -587.73149     -1133825      54.803076    
     68900   300.86944      0.0689         5.6002071      0.02437636     0.098581104    199.3675       362.00628     -56002.071      51.481244      48.051996      54.808204    
     69000   303.10821      0.069          5.6573193     -0.03074442     0.041468979   -1006.0802     -324.87501     -56573.193      51.499347      48.057769      54.813331    
     69100   298.71233      0.0691         5.6450972     -0.021544235    0.05369105    -907.03089     -719.11652     -56450.972      51.493779      48.070214      54.818459    
     69200   298.71037      0.0692         5.6297308     -0.013083597    0.069057431   -448.78365     -652.80052     -56297.308      51.493799      48.063372      54.823586    
     69300   297.70261      0.0693         5.6704177     -0.05098081     0.028370518   -429.3438      -259.12165     -56704.177      51.487765      48.041322      54.828714    
     69400   300.67217      0.0694         5.6543158     -0.036850009    0.044472381    235.6784      -154.83813     -56543.158      51.465173      48.063408      54.833841    
     69500   302.65531      0.0695         5.6192512     -0.00077953297  0.079537072    119.70216      529.22699     -56192.512      51.482945      48.021301      54.838969    
     69600   298.67178      0.0696         5.6730825     -0.044592757    0.025705746    660.59167      318.38522     -56730.825      51.463334      48.033052      54.844096    
     69700   298.25575      0.0697         5.6303781      0.0044880221   0.068410119    255.49795      276.08244     -56303.781      51.46967       48.036128      54.849224    
     69800   297.58599      0.0698         5.649027      -0.0061443088   0.049761257   -60.673473     -152.45745     -56490.27       51.484043      48.030184      54.854351    
     69900   297.37501      0.0699         5.6688602     -0.019112257    0.029927998   -709.77721     -500.90361     -56688.602      51.507136      48.01329       54.859479    
     70000   302.35223      0.07           5.7230543     -0.066732834    0             -701.40342     -796.6275      -57230.543      51.489377      48.039729      54.864607    
     70100   304.16118      0.0701         5.7027331     -0.040648025    0.020321217   -843.69476     -290.03757     -57027.331      51.513609      48.005375      54.869734    
     70200   299.0963       0.0702         5.6983535     -0.02940619     0.024700779    157.36149     -113.22725     -56983.535      51.477403      48.017586      54.874862    
     70300   297.82236      0.0703         5.5993327      0.062506186    0.12372166     1026.8049      539.21725     -55993.327      51.471391      47.987226      54.879989    
     70400   301.87719      0.0704         5.585283       0.069652543    0.1377713      676.24216      936.36239     -55852.83       51.482723      47.974042      54.885117    
     70500   300.88587      0.0705         5.6610899     -0.0019704678   0.061964416    876.47122      20.977423     -56610.899      51.456366      48.015059      54.890244    
     70600   297.04494      0.0706         5.5921737      0.058854812    0.13088057    -30.307574      619.16673        0.029927998   -709.77721     -500.90361     -56688.602      51.507136      48.01329       54.859479    
     70000   302.35223      0.07           5.7230543     -0.066732834    0             -701.40342     -796.6275      -57230.543      51.489377      48.039729      54.864607    
     70100   304.16118      0.0701         5.7027331     -0.040648025    0.020321217   -843.69476     -290.03757     -57027.331      51.513609      48.005375      54.869734    
     70200   299.0963       0.0702         5.6983535     -0.02940619     0.024700779    157.36149     -113.22725     -56983.535      51.477403      48.017586      54.874862    
     70300   297.82236      0.0703         5.5993327      0.062506186    0.12372166     1026.8049      539.21725     -55993.327      51.471391      47.987226      54.879989    
     70400   301.87719      0.0704         5.585283       0.069652543    0.1377713      676.24216      936.36239     -55852.83         71200   301.33979      0.0712         5.532606       0.086019433    0.19044828     980.78529      15.581381     -55326.06       51.4642        47.95191       54.926137    
     71300   300.75576      0.0713         5.2697403      0.31592596     0.45331404     912.47477      501.59999     -52697.403      51.463176      47.903612      54.931264    
     71400   307.08878      0.0714         5.0802378      0.45492389     0.64281649     123.42311      529.97749     -50802.378      51.469386      47.868542      54.936392    
     71500   304.22746      0.0715         4.7748654      0.67167389     0.94818895     197.41769     -290.73881     -47748.654      51.395105      47.902043      54.94152     
     71600   308.38073      0.0716         4.389668       0.93662069     1.3333863     -553.8203      -26.780651     -43896.68       51.387263      47.845951      54.946647    
     71700   304.77633      0.0717         4.1752481      0.99807252     1.5478062     -124.03445     -706.61124     -41752.481      51.295885      47.886355      54.951775    
     71800   298.53612      0.0718         3.773543       1.2107408      1.9495113     -194.02435     -340.65763     -37735.43       51.315769      47.796506      54.956902    
Fix halt condition for fix-id halt_peak_fix met on step 71900 with value 1
     71900   297.60827      0.0719         3.4186885      1.3377078      2.3043659     -455.79318     -104.10594     -34186.885      51.31499       47.742215      54.96203     
Loop time of 148.051 on 1 procs for 71900 steps with 11200 atoms

Performance: 83.919 ns/day, 0.286 hours/ns, 485.642 timesteps/s, 5.439 Matom-step/s
99.7% CPU use with 1 MPI tasks x 1 OpenMP threads

MPI task timing breakdown:
Section |  min time  |  avg time  |  max time  |%varavg| %total
---------------------------------------------------------------
Pair    | 82.754     | 82.754     | 82.754     |   0.0 | 55.90
Neigh   | 0.016367   | 0.016367   | 0.016367   |   0.0 |  0.01
Comm    | 5.7383     | 5.7383     | 5.7383     |   0.0 |  3.88
Output  | 29.841     | 29.841     | 29.841     |   0.0 | 20.16
Modify  | 27.426     | 27.426     | 27.426     |   0.0 | 18.52
Other   |            | 2.275      |            |       |  1.54

Nlocal:          11200 ave       11200 max       11200 min
Histogram: 1 0 0 0 0 0 0 0 0 0
Nghost:          21482 ave       21482 max       21482 min
Histogram: 1 0 0 0 0 0 0 0 0 0
Neighs:              0 ave           0 max           0 min
Histogram: 1 0 0 0 0 0 0 0 0 0
FullNghs:  5.22171e+06 ave 5.22171e+06 max 5.22171e+06 min
Histogram: 1 0 0 0 0 0 0 0 0 0

Total # of neighbors = 5221709
Ave neighs/atom = 466.22402
Neighbor list builds = 42
Dangerous builds = 0


---------------------------------------------------------------------
      Device Time Info (average): 
---------------------------------------------------------------------
Data Transfer:   10.0870 s.
Neighbor copy:   0.0012 s.
Neighbor build:  0.0183 s.
Force calc:      62.5569 s.
Device Overhead: 1.3069 s.
CPU Neighbor:    0.0129 s.
CPU Cast/Pack:   9.6799 s.
CPU Driver_Time: 1.0677 s.
CPU Idle_Time:   56.1965 s.
Average split:   1.0000.
Max Mem / Proc:  37.74 MB.
Prefetch mode:   None.
Vector width:    32.
Lanes / atom:    4.
Pair block:      256.
Neigh block:     128.
Neigh mode:      Hybrid (binning on host) with subgroup support.
Neigh sorting:   Unavailable or disabled.
---------------------------------------------------------------------

Total wall time: 0:02:32
   |            |       |  1.54

Nlocal:          11200 ave       11200 max       11200 min
Histogram: 1 0 0 0 0 0 0 0 0 0
Nghost:          21482 ave       21482 max       21482 min
Histogram: 1 0 0 0 0 0 0 0 0 0
Neighs:              0 ave           0 max           0 min
Histogram: 1 0 0 0 0 0 0 0 0 0
FullNghs:  5.22171e+06 ave 5.22171e+06 max 5.22171e+06 min
Histogram: 1 0 0 0 0 0 0 0 0 0

Total # of neighbors = 5221709
Ave neighs/atom = 466.22402
Neighbor list builds = 42
Dangerous builds = 0
Total wall time: 0:02:32
