(written by ASE)

16407 atoms
2 atom types

0.0      60.701581630959176  xlo xhi
0.0      60.701581630959176  ylo yhi
0.0      63.730000000000004  zlo zhi

Atoms # atomic

     1   1   -0.033630671322580678   -0.039711600339612532      33.378058161174458
     2   1      1.5149538229752868      1.4200764167510136      35.503293089633814
     3   1   -0.011678664467490898    0.056746207076062975      37.322459589056542
     4   1      1.3885047986395029      1.4167694784365614      39.417778776299123
     5   1   -0.039897404173919238   -0.050491460295878809      41.447347187404986
     6   1      1.4881418657855705      1.4791757213831014      43.567758396597519
     7   1   -0.041515540121370882     0.10600017989083939      45.589428813398811
     8   1      1.5050090541925776      1.4969682898108041      47.657585087497814
     9   1   -0.020235153810667584   0.0017767881038657863      49.612870934396902
    10   1      1.5635865144906815      1.5159184162179427      51.612587561609715
    11   1    0.054971607498598168 -0.00027846601412588519      53.578053758991224
    12   1      1.4159325182982614      1.4913887367112018      55.672535170423636
    13   1   -0.028409354289215968    -0.12754897461095874      57.613026510731387
    14   1      1.4019379114595287      1.4490002383754699      59.770236970583021
    15   1  -0.0062022019304062165   -0.095993418789347321       61.72442975194231
    16   1   -0.012433576973415227      2.8449946472956715      33.285716590233157
    17   1      1.4881954313540084      4.3332825211719372      35.409676492862651
    18   1   -0.073204775596557456      2.7760448936707016      37.474100482211462
    19   1      1.5038760728150156       4.372405401795123      39.387551813899407
    20   1   -0.017792819285553804      2.8967583556835814      41.432858503760066
    21   1      1.4122337603106652       4.366259253211731       43.55135019535809
    22   1    0.013397361399937989      2.8846772443039543      45.466733524192904
    23   1      1.4922121894913338      4.3588764451165369      47.478831879271731
    24   1   -0.010675870564301523      2.8691066020149822      49.539996635388967
    25   1      1.3338339049772319        4.33978956803261      51.637647589549616
    26   1   -0.003608567829287355      2.9047897598489287      53.616725686627952
    27   1      1.5117297126176437      4.3546750079016254      55.614639783886027
    28   1    0.031508063964870513      2.8860441703522368      57.604845791433682
    29   1      1.4483485874781432      4.4166435276553466       59.69480707962822
    30   1     0.05010218644954445      2.9529627099096345      61.744679503874771
    31   1   -0.072336994819971384      5.8377771789273663      33.350232613064279
    32   1      1.4329962791767947      7.2493236906307867       35.35293136216567
    33   1   -0.020030776690515013      5.8194933614089974      37.433880065021803
    34   1      1.4127706133205444      7.2171362078639403      39.521421590066836
    35   1  -0.0083763201874020501      5.7601259009102295      41.448810723382508
    36   1      1.4403851297294699      7.2080762241656879      43.374925978947097
    37   1    0.026653835374879555       5.735249771249574       45.49048754174509
    38   1      1.4130182014603216      7.1766429614349638      47.512012304524767
    39   1  -0.0046911749609441292      5.7255303871788445      49.576419386211789
    40   1       1.469478095335512       7.188265781414656      51.638162881138342
    41   1    0.060593401020536911      5.8474707624163305      53.639312188020163
    42   1      1.4316661695887645      7.2961339182513747      55.661584501297483
    43   1    0.081682512858083187      5.7815692334552038      57.684049415055007
    44   1      1.4607747800730422      7.2584601379222722      59.714689219676615
    45   1   -0.021229433854517768      5.8279569317638611      61.715540261085302
    46   1  -0.0010853336788902383      8.6205105477211266      33.383715711162338
    47   1      1.4722791808817857      10.200857042748977      35.340958213177238
    48   1      0.0653845630380534      8.6334701925948458       37.46891725530029
    49   1      1.4278868756579237      10.169577505383977      39.525531186055396
    50   1   -0.023951056011565969      8.6723879678279374      41.511832090627429
    51   1      1.5472462516216448      10.122532350938997      43.538075370309812
    52   1  -0.0033462821725237764      8.6776432138403852      45.583898420424177
    53   1      1.4892091100741556      10.151451159509454      47.555743322280861
    54   1    0.027021175169173905      8.6524500900478749       49.52452532598339
    55   1       1.456984353909115      10.114368186596529      51.581365856004943
    56   1  -0.0050461211952066614      8.6189171606804837      53.688225887398431
    57   1      1.3947081062056172      10.136866324829167      55.601821769967643
    58   1   -0.059533452686205135      8.6968636758039182      57.669155499890557
    59   1      1.4333084669077021      10.052571284285658      59.751082350076622
    60   1   -0.088100566100696956       8.638296758850105      61.785893579003314
    61   1    0.027069035339043986      11.604303967307015      33.442064564083701
    62   1       1.401750051172562      12.909552630531667      35.419844060541024
    63   1     0.13335269838780589       11.49164515652428       37.40513165378492
    64   1      1.4191528252833201      13.008345867118033      39.405596572199663
    65   1     -0.0345562038894075      11.587212021945188      41.445881148855065
    66   1      1.3689880961612588      13.059156246526062      43.554840218394354
    67   1    0.056354843170933769      11.496982417831362      45.578968358156843
    68   1      1.4000799142761848      13.007156031061783      47.582133091175379
    69   1   -0.091242330538948813      11.507243100484072      49.502686231422835
    70   1      1.3689309309499915      12.986614551543012      51.590951090038274
    71   1   -0.028186302152082305      11.601778173456939       53.70130828100384
    72   1      1.4110668052999153      13.032961777403491      55.660085167430516
    73   1   -0.071637397137024786      11.601470952109002      57.668078246271087
    74   1      1.4627272904734103      13.122894540265701      59.705426945159367
    75   1   -0.024873417777688391      11.615366951482164      61.796427258483959
    76   1   -0.014056436608460815      14.541178428310346      33.339851019213079
    77   1      1.4765954608659442       15.81194807541042      35.412783571183269
    78   1  0.00021934783044672717      14.404908896450021      37.298242180758166
    79   1      1.5233142618314262      15.875742305549707      39.510147630105791
    80   1   -0.023765568882146766      14.471947453223915      41.518802539021891
    81   1      1.4406114690422884      15.900585023131656      43.508188282646074
    82   1  -0.0080962118358993921      14.523199276515117      45.525706501902377
    83   1      1.4341608563849253      15.984727856511359      47.527878628407173
    84   1    0.027979481130590705      14.445713931102448      49.559961097416981
    85   1      1.3698550854949032      15.885304033082353      51.644612923176211
    86   1   -0.041309782679042679      14.575365404679843      53.564684876349901
    87   1      1.4810963101585279      15.893238289207005      55.610741580025071
    88   1   -0.019699810640270005      14.430745041476275      57.769204533139821
    89   1      1.4148917577951023      15.828360999364342      59.707986081844737
    90   1  -0.0094534480525112173      14.475861181114855      61.705965121164603
    91   1   -0.048055401990291756      17.385793926215158      33.431158651277933
    92   1      1.5126911770262943      18.824217399770742      35.395372170688205
    93   1    -0.08329935388216432      17.379146711405351      37.378594143068398
    94   1      1.3671232427819948      18.771632392069858      39.383113859345279
    95   1   -0.010243242379619074      17.434168236248574       41.46013111439639
    96   1      1.5077368326691869      18.761090947198245      43.519697308803181
    97   1     0.00607447770795215       17.41018009144025      45.525315624391411
    98   1      1.5720034518631243      18.841843225202847      47.622332527679433
    99   1    0.026810376773749041      17.306767706885498      49.524180594547445
   100   1      1.5042224025925075      18.722626250945758      51.545695878274152
   101   1   -0.077131732312145998      17.250301528411612      53.602455942736391
   102   1      1.4940633753993995      18.684179084238306      55.687788155727198
   103   1   -0.051493353361618727      17.424815851345279      57.683691658819221
   104   1      1.4116530455586429       18.74855874637181      59.763808038495455
   105   1  -0.0014520048127752969      17.299790494774562      61.704918095558895
   106   1    -0.10577376798288284      20.222025168148026        33.3694194420532
   107   1      1.4507688636791936      21.648616660011044      35.417702019063576
   108   1   -0.046643504018929333      20.287695086716955      37.391576559637215
   109   1      1.4150973760490451      21.640378605522571      39.465277139824252
   110   1   -0.019638947409272356      20.255522202072683      41.469715649432587
   111   1      1.4547133848895952      21.620655020992633      43.496322412451562
   112   1    -0.15579855850594407      20.219949742673347      45.475000887681958
   113   1       1.421090904164976      21.725460280734247      47.526396196041659
   114   1   -0.030655999272311843      20.264095774410315       49.52531181798841
   115   1      1.5019428034101581      21.695890851654742      51.507604336109033
   116   1  -0.0089144345166391609      20.220135034074143      53.646534513106069
   117   1      1.3441929878727772       21.60439153076226      55.583902409399947
   118   1     0.04606981319254299      20.192193132877538      57.673409508630044
   119   1      1.3743272931605968      21.681649612562421      59.651160444376806
   120   1   -0.053153748111855151      20.161170864896754      61.647808053374938
   121   1   0.0085837276329935232      23.103566670884501      33.432361722625167
   122   1      1.4433257024597081      24.590585199388915      35.388935674595494
   123   1   -0.074894701187550844      23.122620781808767      37.359629902779588
   124   1      1.4019316091450531      24.565195572484345      39.510154986855724
   125   1    0.065192152082382937      23.077148168045838      41.558373749925813
   126   1      1.4409968342465569      24.616590227738264      43.478714107215225
   127   1    0.052763166734706372      23.146931221865291      45.482444639854911
   128   1      1.4654975892815285      24.561023149442374      47.544893548935775
   129   1     0.11498442870401676      23.115480087240297      49.613200533260098
   130   1      1.4415175807703744      24.629884030788947      51.673679021960183
   131   1   -0.053005954759746982      23.078585731927618      53.609354853537731
   132   1      1.3992506579517059      24.502468694826888      55.643553040562068
   133   1   -0.039997125498074985      23.099305858658354      57.624856032323287
   134   1       1.415773871302807      24.522247413971154      59.773178099119903
   135   1    0.078133887099301969      23.154135742190611       61.73090951343864
   136   1   -0.066703269242446753      26.068292637649058      33.348407494922647
   137   1      1.4116050828871893      27.485717713972228      35.322505402004388
   138   1   0.0048807305467806769      25.998411309837078      37.425071068950984
   139   1      1.4278569869702913      27.419231651684662       39.49771338338185
   140   1   0.0076924441158570493      25.981309644377088       41.52341446758512
   141   1      1.4926480660138182      27.434398041975797      43.598151070391211
   142   1   -0.028760716212642409      25.995647544597606      45.520459247030509
   143   1      1.5235960684735914      27.432127756970488      47.543454642831023
   144   1    0.056297500247869475      26.021300912560712      49.579366023350197
   145   1      1.3511216856157164      27.441425645735329      51.618912813905688
   146   1    0.011283073751580601      25.963755775308456      53.587771116513764
   147   1      1.4460416692831712      27.512282071989929      55.615880806748194
   148   1  -0.0067777574988285424      25.980181793174498      57.567925625248144
   149   1      1.4035192302344566      27.499304429504559      59.707428965014998
   150   1   -0.012971736127668394      26.028490830261173      61.607968526283344
   151   1   -0.059720401697894512      28.957086136609608      33.415890991181179
   152   1      1.4541996364029988      30.359997325634705      35.451690546986022
   153   1   0.0071594194323392939      28.909268805463423       37.46915617058594
   154   1      1.4889957683037229      30.296036958616799      39.481402838433269
   155   1   -0.070458177037380817      28.888048096629046      41.548094538552526
   156   1      1.4768335260193948      30.288492991544029      43.520903254957219
   157   1   -0.036927824435343051      28.900779200957235      45.493253052749267
   158   1      1.4522286451500734      30.329373626645388      47.520500020509211
   159   1     0.03739560090133659      28.839587020856822      49.646380182523131
   160   1      1.5146788880714952      30.396481767925245      51.603948744516181
   161   1     -0.1841447299100166      28.865175114385469      53.617685612912659
   162   1       1.367373534680385      30.298419119848635      55.622859643293239
   163   1    0.014380067551653606      28.919209113831208      57.675066589012893
   164   1      1.3410424954316578      30.433623034187981      59.682485395064468
   165   1   -0.036971231860536094      28.931894169416765      61.770605826073094
   166   1   0.0070196485977792175      31.636144325699181      33.379301536140986
   167   1      1.5456216501531839      33.152436399873466      35.381095401931198
   168   1    -0.03187848149406388      31.784505183843002      37.338043508002691
   169   1       1.412621138264655      33.236854383007028      39.451036996316596
   170   1  -0.0095423990825674321      31.806650001550867      41.503754046969235
   171   1       1.414805426366684       33.23728527699592      43.447693995974866
   172   1    0.047551725112701976      31.750374006958229      45.521695512633087
   173   1      1.4468797335049499      33.320886867304417      47.582791007671347
   174   1   -0.015163393319005684      31.747570288534071      49.562187368491678
   175   1      1.5020239554243113      33.297910646447335      51.733794935328483
   176   1    0.057151493543699097      31.749270089184954      53.656081990068259
   177   1      1.4637848174769976      33.301852276671553      55.624972347969432
   178   1     0.11836187622931633       31.82036717240431      57.667530196367252
   179   1      1.4202544555911916      33.269164492907514      59.758890025880874
   180   1  -0.0023178050038152559      31.831175247595546      61.730222937796633
   181   1    -0.06340830842321632      34.630917648380652      33.441979512212832
   182   1      1.5043424881976049      36.121796780674835      35.397468276448755
   183   1    0.034932506480004274      34.667242209983172      37.448914335513635
   184   1      1.4603854562399137      36.168603699147297      39.472760356535659
   185   1    -0.02499618866714207      34.615413687709697       41.52304618424732
   186   1      1.4839777380623826      36.133020841671915      43.504007516398374
   187   1   -0.033730468904703284       34.77255376861806      45.479518313744684
   188   1      1.4326488580321857      36.106578455005952      47.615795258995362
   189   1   -0.051961167701562817      34.687907879853284      49.639958260560178
   190   1      1.4832186484329337      36.121754501197479      51.630233054397635
   191   1    0.011892365213211804      34.690189787211011      53.583570478209985
   192   1      1.4189056373723248      36.104657614535085      55.619576500460774
   193   1    -0.10208911819526456       34.69564233290577       57.77752416787559
   194   1      1.4249531867564125      36.040951001850594      59.716502894808386
   195   1   0.0067965816022831048       34.69244802679961      61.713091103236472
   196   1    0.049304076781846499      37.619901019289664      33.433247060446881
   197   1      1.4721381872346084      39.039412155743001      35.357785506746183
   198   1    0.052114776983619229       37.57606567363279      37.393330719361472
   199   1      1.4844130002945983      39.063958749771515      39.414535472604832
   200   1   -0.029212595112334223      37.634566745221392      41.473986676124028
   201   1      1.3721261702967338      39.016660060784531      43.541902099331544
   202   1    0.036503258689985406      37.541615477397315      45.469453990458618
   203   1      1.4625502840815741      39.043082627174904      47.529293749247415
   204   1    0.061217038152687024      37.532888313377633      49.544593291474854
   205   1      1.4927188928916251      38.957416442788869      51.608167049758805
   206   1    0.073047091229922728      37.538854725400334      53.569869796004312
   207   1      1.4147484394443046      38.976579154166039      55.670762581985734
   208   1   -0.084720928158788442      37.535313151177931      57.690826933284761
   209   1      1.5296734655283446      39.032766291482908      59.671747868562399
   210   1    0.026625104933786805       37.53860331718937      61.747969402469849
   211   1   -0.031072973830376938      40.473695154961035      33.450363175631118
   212   1      1.4998835939457493      41.945059016504963      35.376696903457237
   213   1  -0.0035335245163191694      40.397817682021127      37.455392356349861
   214   1      1.4467704183188905      41.846088139962873      39.483187809219842
   215   1    -0.06658404013335717      40.437386577314861      41.462145182051067
   216   1      1.3698859726436647        41.8571520334268      43.543529738974783
   217   1    0.075917917603485471      40.369197264328697      45.637683008308002
   218   1       1.442720943208198       41.90823383190363      47.642037819093893
   219   1    0.057604909071157132      40.537415575750728       49.57812666587423
   220   1      1.4244825328780912      41.922417468611599       51.63500903166112
   221   1    0.065113553573087624      40.470512727927968      53.716664332893018
   222   1       1.372559676081663      41.964507927813763      55.666838838851852
   223   1   -0.074713241113790324       40.43597262974825      57.775835496211407
   224   1      1.4545966315078402      41.931139135818263      59.717601956826236
   225   1    0.039393841773105197      40.450530065341447      61.748168441334855
   226   1   -0.071927326256729776      43.358766429772963      33.458208545372024
   227   1       1.386888248686972      44.798321293039535      35.533353126193845
   228   1    0.022984808377102182      43.394147588999942      37.329815026193408
   229   1      1.5259541486258907       44.82008816033008      39.445600203579922
   230   1   -0.035439544552812667      43.293232064469976      41.378707786492512
   231   1      1.4521767192680728       44.83012912290026       43.49015201648826
   232   1    0.024500035287802729      43.403594241081528      45.492469263126544
   233   1      1.4192819102709757      44.802630512037346      47.531182766161876
   234   1    0.005111143873810526      43.413761751027344      49.578206886076991
   235   1      1.3752728010179527      44.824106239575762      51.574033819686939
   236   1    -0.02486938941084112       43.31460605645487      53.466624546949575
   237   1      1.3837393931896413      44.770361857594992      55.597200636106194
   238   1    0.017960086267444882      43.308983091038712       57.74959473613886
   239   1      1.5448829115309495      44.819889788185151      59.786683637735614
   240   1  -0.0066756840087506186      43.390059244960518      61.732552850232551
   241   1    -0.05788467340660626      46.311074335412762      33.361629298344226
   242   1      1.4283446153802815      47.683813498755313      35.442351921252538
   243   1    0.019245920664885084       46.16952697310704      37.394320415096772
   244   1      1.4109621531447545      47.677541283788948      39.373210811841503
   245   1    0.090324850591544492      46.319312291847631      41.408971383222458
   246   1       1.458218111496242      47.643812699779602      43.541139172429382
   247   1    -0.05446532469807383      46.313849680141118      45.481671555010514
   248   1      1.4891060820809208      47.682386828534447      47.613994253303495
   249   1    -0.06642377381330361       46.26340989863013      49.595358200095653
   250   1       1.491888587932793      47.694184274871148      51.528565048245284
   251   1   -0.053182734655303446       46.18922065156216      53.606389321177048
   252   1      1.3959883926717171       47.69512057882261      55.666712145791983
   253   1    0.087872147128339573      46.208279691909169      57.758420929215525
   254   1      1.4069520393860799      47.663961878854721       59.60363461688128
   255   1   -0.069697719901679639      46.232574249735322      61.708038812457062
   256   1   -0.034457307629488509      49.080004286296266       33.42376301724827
   257   1      1.4469361273950883      50.573591543523797      35.380384411099911
   258   1   -0.038831610447829651      49.215707656285247      37.434014858848364
   259   1      1.4098943280720422      50.545546707222307      39.522069946336828
   260   1    0.012255740356211624      49.101940398869864      41.378377244356834
   261   1      1.4560103969573222      50.499846172188008      43.558541572304378
   262   1    0.019262767040987352      49.093055946561115      45.565805891668205
   263   1      1.3966929221780375      50.559133776869452      47.571468677126816
   264   1   -0.038300341703176893      49.108962436747746      49.514714773581737
   265   1       1.381872565290251      50.715200827789062      51.609231742541063
   266   1    0.037024676246572075      49.179139708273034      53.542618406827771
   267   1      1.3636424048800651         50.681974974073      55.643130560216598
   268   1   -0.024181388288691198      49.183257065885449      57.722781251450392
   269   1      1.4962646682672356      50.493899232673371      59.583475890252863
   270   1   -0.020509154968478199      49.078907323022825      61.697972342790031
   271   1   -0.065657947611902676      52.057103350718862      33.327237394017821
   272   1      1.4548592718929501      53.540802710330958      35.457438685030596
   273   1   -0.027996847285477595      51.977568862078478      37.483577253594788
   274   1      1.4462949203107809      53.365696203481441      39.515429669290498
   275   1    0.080300846361649511      52.056018304106679      41.460470473334631
   276   1      1.4584159779180133       53.47247539021992       43.57177720741015
   277   1    0.016467781698260919      51.985370079597168      45.531897373657998
   278   1      1.4254201364328216      53.477453942784223      47.523067040779445
   279   1    0.019665988002000371      52.066464066230878       49.65840573429557
   280   1       1.356749638691285      53.474467072148386      51.526108043258915
   281   1  0.00051744936517531491      52.078840745419491      53.605076822240818
   282   1      1.4427675282719625       53.49618976862606      55.700013688163516
   283   1   0.0070615580561953746      52.048106004901513      57.680201811837698
   284   1      1.4844430035186202       53.45969783521786      59.648572776471838
   285   1   -0.021925781199659714      52.031734125104677      61.724995655967454
   286   1   -0.028226686717236917      54.965945830951554      33.385719406154891
   287   1      1.5785169713969918      56.258233484763167      35.376257587922026
   288   1   -0.017536366479841609      54.947605498592949      37.453619973322525
   289   1      1.5050079896909623      56.305352430597132       39.42250228643389
   290   1   -0.053356494850804528      54.993105477395254      41.505740832072703
   291   1      1.3540271063597538      56.373152700866186      43.544642217329582
   292   1   -0.023787551735742624       54.89406994994998      45.552880145863249
   293   1      1.4493724929254821      56.370445623323647      47.501055961912968
   294   1      0.0489737281431991      54.982195166565539       49.60086141413872
   295   1       1.474572015500841      56.401533449104434      51.616373752614514
   296   1   -0.058483128907797249      54.887869615188805      53.660370775426792
   297   1      1.4449480576354075      56.308997792451727      55.687625251911392
   298   1   -0.009616604311811416      54.864756553994518      57.661050218035719
   299   1      1.4739303187205368      56.362793133745619      59.674719563645723
   300   1    0.018684269337127826      54.966002684707199      61.727274117044693
   301   1    -0.02532835908052003      57.790943264990595      33.391184576584081
   302   1      1.3333354220387734      59.303610556998812      35.368698044371726
   303   1   -0.023910340336962318      57.801413266585115      37.426917100829407
   304   1      1.3500220888563281      59.293634653139151      39.466277094894828
   305   1   -0.056329963472055405      57.805972122443073      41.421132637653997
   306   1      1.3589739001297436      59.175053831822105      43.542200093229418
   307   1   -0.022418136807927161      57.901832428011026      45.446984498168725
   308   1      1.5151799934909809       59.25512826362521      47.640442142192001
   309   1   -0.057560128957197802      57.766488256776171      49.587191032327517
   310   1      1.3520914152247065      59.228370458244093      51.571507992489956
   311   1    0.018516189604133468      57.796662497792362      53.595120855381865
   312   1        1.45766048674926      59.335801131502606      55.691808203205753
   313   1   -0.032732292468089445      57.890183863373665        57.6151227626478
   314   1      1.4786103719037245      59.217008189656177        59.6706793517032
   315   1   -0.021507378525162994      57.876249605378398      61.766539801114405
   316   1      2.9000467197132931   -0.058644598639467686      33.384677422761811
   317   1      4.3627150528971832      1.4426678474935219      35.401662669820219
   318   1      2.9544816763263557    0.072251157956669948      37.455729747009855
   319   1      4.4148508938092252      1.4452415308145916      39.453302230876645
   320   1      2.8669344885071282    0.094333311650706006      41.536705221016405
   321   1      4.4188480239178904      1.3966073331311204      43.464923124120929
   322   1      2.8796088123175809   -0.023893348749401994      45.489725074514546
   323   1      4.3774297692155688      1.3640969107108378      47.540200157073606
   324   1      2.9503280094210247    -0.02575785311330411      49.556103846895724
   325   1      4.3100973151459785      1.4378664126060512      51.693786792151876
   326   1      2.8886170734151992    -0.06935998731223518      53.732289750327602
   327   1      4.3123529063170096      1.3681626506934155      55.658638350824098
   328   1       2.822865010568242    0.021543434626135373      57.680378829863919
   329   1      4.3369949230999056      1.4424862324523027      59.718884997999432
   330   1      2.8975119295022091    0.097294772679669725       61.73674334064286
   331   1      2.9206359132783657      2.8914785060371493      33.320729415297123
   332   1      4.4347277118491926      4.3315513305941344      35.329658871756152
   333   1      2.9220689305979994      2.8489874843118681      37.413205915100356
   334   1      4.2287174540873202       4.364160308032667      39.438259899298622
   335   1      2.8998835820550037      2.8474818119765897      41.557343055320601
   336   1      4.3206919383542175      4.3164170776366966      43.569946259837494
   337   1      2.8532406004049431      2.8794155660621374      45.498795370250804
   338   1      4.4514635983144455      4.3591942736178186      47.519953662706648
   339   1      2.9039717965668461      2.8028902032737215      49.574942643897764
   340   1      4.2818809522038928      4.4138528560501902      51.650302783434427
   341   1      2.7900921766434097      2.9284503025688888      53.681630384572316
   342   1       4.284792728633998      4.3163428297863797      55.613105231611357
   343   1      2.9449013790163256      2.8737559755685411      57.632632391725892
   344   1      4.3478803957150776      4.4066281119396686      59.763078097447327
   345   1      2.8627190497224628       2.913517735996253      61.747597613337518
   346   1      2.8419550412883354      5.8772655648013492      33.311981260366956
   347   1      4.2967468073860751      7.1591406783627232      35.380183183185125
   348   1      2.8576411879448824      5.7274132845972625      37.441655975888118
   349   1      4.2783533110352536      7.3446261365098362      39.470566447339465
   350   1      2.8642393750715822      5.7757245657690381      41.498113548898282
   351   1      4.2752912892182939      7.2693823928287289      43.537958960506408
   352   1      2.9052698140215614      5.7861458949572162      45.600392763129143
   353   1      4.2992320449095587      7.2311672769362056      47.582478022339615
   354   1      2.9179148286950465      5.8057584526761152      49.565093497873214
   355   1      4.3213731699753328      7.3176668379985044      51.658237851702516
   356   1      2.8549094551896168      5.7593646824672931      53.685490063585803
   357   1      4.3017679202877588      7.1618041293030803      55.666746982461895
   358   1      2.9038757379617035      5.7679058795352596      57.670428013451691
   359   1      4.2892762103460669      7.2942591396103902      59.691678198734301