LAMMPS (11 Feb 2026 - Development - b75dfcc)
OMP_NUM_THREADS environment is not set. Defaulting to 1 thread.
  using 1 OpenMP thread(s) per MPI task
package gpu 1
units metal
boundary p p p
atom_style atomic
timestep 0.002
read_data data.crystal
Reading data file ...
  orthogonal box = (0 0 0) to (51.12382 53.129433 50.090909)
  2 by 2 by 1 MPI processor grid
  reading atoms ...
  11520 atoms
  read_data CPU = 0.026 seconds
change_box all triclinic
Changing box ...
  triclinic box = (0 0 0) to (51.12382 53.129433 50.090909) with tilt (0 0 0)

pair_style eam/alloy
pair_coeff * * Cu_zhou.eam.alloy Cu
Reading eam/alloy potential file Cu_zhou.eam.alloy with DATE: 2007-10-12

neighbor 2.0 bin
neigh_modify delay 10 check yes

thermo 100
thermo_style custom step temp pe press pxx pyy pzz lx ly lz

print '=== Phase 1: 0K Relaxation ==='
=== Phase 1: 0K Relaxation ===
fix relax all box/relax aniso 0.0 vmax 0.001
minimize 1.0e-8 1.0e-10 10000 100000

CITE-CITE-CITE-CITE-CITE-CITE-CITE-CITE-CITE-CITE-CITE-CITE-CITE

Your simulation uses code contributions which should be cited:

- GPU package (short-range, long-range and three-body potentials): https://doi.org/10.1016/j.cpc.2010.12.021, https://doi.org/10.1016/j.cpc.2011.10.012, https://doi.org/10.1016/j.cpc.2013.08.002, https://doi.org/10.1016/j.commatsci.2014.10.068, https://doi.org/10.1016/j.cpc.2016.10.020, https://doi.org/10.3233/APC200086

@Article{Brown11,
 author = {W. M. Brown and P. Wang and S. J. Plimpton and A. N. Tharrington},
 title = {Implementing Molecular Dynamics on Hybrid High Performance Computers---Short Range Forces},
 journal = {Comput.\ Phys.\ Commun.},
 year =    2011,
 volume =  182,
 pages =   {898--911},
 doi =     {10.1016/j.cpc.2010.12.021}
}

@Article{Brown12,
 author = {W. M. Brown and A. Kohlmeyer and S. J. Plimpton and A. N. Tharrington},
 title = {Implementing Molecular Dynamics on Hybrid High Performance Computers - Particle-Particle Particle-Mesh},
 journal = {Comput.\ Phys.\ Commun.},
 year =    2012,
 volume =  183,
 doi =     {10.1016/j.cpc.2011.10.012},
 pages =   {449--459}
}

@Article{Brown13,
 author = {W. M. Brown and Y. Masako},
 title = {Implementing Molecular Dynamics on Hybrid High Performance Computers---Three-Body Potentials},
 journal = {Comput.\ Phys.\ Commun.},
 year =    2013,
 volume =  184,
 pages =   {2785--2793},
 doi =     {10.1016/j.cpc.2013.08.002},
}

@Article{Trung15,
         3   0             -40778.539     -0.085389374   -0.055320475   -0.058222879   -0.14262477     51.12118       53.126688      50.088325    
Loop time of 0.0189769 on 4 procs for 3 steps with 11520 atoms

85.2% CPU use with 4 MPI tasks x 1 OpenMP threads

Minimization stats:
  Stopping criterion = energy tolerance
  Energy initial, next-to-last, final = 
     -40778.5370608722  -40778.5386851077  -40778.5389054426
  Force two-norm initial, final = 31.490067 0.013930388
  Force max component initial, final = 18.186034 0.012110362
  Final line search alpha, max atom move = 0.3194808 0.0038690281
  Iterations, force evaluations = 3 6

MPI task timing breakdown:
Section |  min time  |  avg time  |  max time  |%varavg| %total
---------------------------------------------------------------
Pair    | 0.009372   | 0.011487   | 0.012866   |   1.2 | 60.53
Neigh   | 0          | 0          | 0          |   0.0 |  0.00
Comm    | 0.0022226  | 0.0022395  | 0.0022585  |   0.0 | 11.80
Output  | 0          | 0          | 0          |   0.0 |  0.00
Modify  | 3.2e-07    | 4.135e-07  | 5.72e-07   |   0.0 |  0.00
Other   |            | 0.00525    |            |       | 27.66

Nlocal:           2880 ave        2988 max        2750 min
Histogram: 1 1 0 0 0 0 0 0 0 2
Nghost:          11167 ave       11297 max       11059 min
Histogram: 2 0 0 0 0 0 0 0 1 1
Neighs:              0 ave           0 max           0 min
Histogram: 4 0 0 0 0 0 0 0 0 0

Total # of neighbors = 0
Ave neighs/atom = 0
Neighbor list builds = 0
Dangerous builds = 0
=== Phase 2: Equilibration at 300.0K ===


---------------------------------------------------------------------
      Device Time Info (average): 
---------------------------------------------------------------------
CPU Neighbor:    0.0007 s.
CPU Cast/Pack:   0.0004 s.
CPU Driver_Time: 0.0001 s.
CPU Idle_Time:   0.0057 s.
Average split:   1.0000.
Max Mem / Proc:  10.56 MB.
Prefetch mode:   None.
Vector width:    32.
Lanes / atom:    4.
Pair block:      256.
Neigh block:     128.
Neigh mode:      Hybrid (binning on host) with subgroup support.
Neigh sorting:   Unavailable or disabled.
---------------------------------------------------------------------


--------------------------------------------------------------------------
- Using acceleration for eam/alloy:
-  with 4 proc(s) per device.
-  with 1 thread(s) per proc.
-  Horizontal vector operations: ENABLED
-  Shared memory system: No
--------------------------------------------------------------------------
Device 0: NVIDIA RTX A4000, 48 CUs, 15/16 GB, 1.6 GHZ (Mixed Precision)
--------------------------------------------------------------------------

Initializing Device and compiling on process 0...Done.
Initializing Device 0 on core 0...Done.
Initializing Device 0 on core 1...Done.
Initializing Device 0 on core 2...Done.
Initializing Device 0 on core 3...Done.

Setting up Verlet run ...
  Unit style    : metal
  Current step  : 0
  Time step     : 0.002
Per MPI rank memory allocation (min/avg/max) = 3.088 | 3.unfix relax

print '=== Phase 2: Equilibration at 300.0K ==='
=== Phase 2: Equilibration at 300.0K ===
reset_timestep 0
velocity all create 300.0 63671 dist gaussian
fix eq all npt temp 300.0 300.0 0.1 tri 0.0 0.0 1.0
run 2500
Per MPI rank memory allocation (min/avg/max) = 3.088 | 3.089 | 3.091 Mbytes
   Step          Temp          PotEng         Press           Pxx            Pyy            Pzz             Lx             Ly             Lz      
         0   300           -40778.539      3507.2051      3506.979       3499.9445      3514.6917      51.12118       53.126688      50.088325    
       100   146.53116     -40485.805      4171.2593      4144.2264      4181.9445      4187.6069      51.149629      53.151454      50.11652     
       200   198.20355     -40454.233      1155.5835      1312.2049      1095.6528      1058.8928      51.196369      53.208639      50.166594    
       300   247.91724     -40405.621     -202.74379     -244.00953     -167.11588     -197.10597      51.235281      53.247698      50.19948     
       400   282.16998     -40340.047     -881.966       -991.47332     -719.75348     -934.67122      51.274266      53.26597       50.233015    
       500   308.8419      -40305.926     -1344.7025     -1341.9394     -1544.1071     -1148.0609      51.281324      53.311005      50.241802    
       600   304.01633     -40316.871     -1557.3606     -1570.0384     -1322.1912     -1779.8522      51.296678      53.269648      50.258945    
       700   293.16139     -40332.95      -1429.081      -1417.0726     -1807.051      -1063.1193      51.274531      53.301799      50.230321    
       800   301.73088     -40313.7       -1134.4501     -1133.8962     -969.82917     -1299.6249      51.281124      53.281495      50.252001    
       900   304.56343     -40311.021     -670.74855     -444.78165     -689.05483     -878.40917      51.268167      53.28648       50.244195    
      1000   299.57695     -40332.051     -37.509363     -426.67096     -78.950963      393.09383      51.268649      53.27413       50.216608    
      1100   298.76446     -40321.978      836.79148      931.90459      860.1114       718.35845      51.24177       53.267921      50.219179    
      1200   309.07312     -40314.984      1572.8763      1994.3458      1461.3347      1262.9484      51.231851      53.259201      50.218624    
      1300   298.39112     -40321.682      2354.88        1786.7231      2567.4498      2710.467       51.261408      53.223142      50.183884    
      1400   295.85592     -40323.545      2529.7366      3218.0923      2146.6907      2224.4267      51.194164      53.262834      50.20317     
      1500   304.00301     -40313.674      2016.7197      1443.6172      2300.5862      2305.9555      51.259843      53.233361      50.196552    
      1600   299.0057      -40315.547      1253.8007      1400.5495      1131.6355      1229.217       51.249159      53.256054      50.209092    
      1700   298.00133     -40326.277      308.58004      505.53756      307.49348      112.70908      51.240527      53.272192      50.229208    
      1800   299.74036     -40315.357     -312.24451     -842.92102     -128.503        34.690484      51.288656      53.276253      50.212889    
      1900   300.31901     -40311.914     -782.52579     -306.35396     -1018.1384     -1023.085       51.260042      53.290499      50.249152    
      2000   296.90891     -40323.163     -1225.4387     -1440.6512     -1212.4474     -1023.2174      51.289364      53.288921      50.227841    
      2100   298.27312     -40318.887     -1407.3843     -1278.8659     -1446.7867     -1496.5003      51.269889      53.298498      50.248938    
      2200      2400   297.20222     -40321.935     -411.90625     -352.1981      -133.48738     -750.03326      51.257483      53.279043      50.240163    
      2500   302.83346     -40316.377      469.95812     -43.219161      315.70659      1137.3869      51.279347      53.276367      50.193993    
Loop time of 5.40203 on 4 procs for 2500 steps with 11520 atoms

Performance: 79.970 ns/day, 0.300 hours/ns, 462.789 timesteps/s, 5.331 Matom-step/s
93.0% CPU use with 4 MPI tasks x 1 OpenMP threads

MPI task timing breakdown:
Section |  min time  |  avg time  |  max time  |%varavg| %total
---------------------------------------------------------------
Pair    | 3.1835     | 3.3867     | 3.8743     |  15.4 | 62.69
Neigh   | 0          | 0          | 0          |   0.0 |  0.00
Comm    | 0.63453    | 0.6381     | 0.64227    |   0.4 | 11.81
Output  | 0.0010086  | 0.001255   | 0.0013977  |   0.4 |  0.02
Modify  | 0.75219    | 1.2254     | 1.4395     |  24.9 | 22.68
Other   |            | 0.1505     |            |       |  2.79

Nlocal:           2880 ave        2948 max        2812 min
Histogram: 2 0 0 0 0 0 0 0 0 2
Nghost:          11167 ave       11235 max       11099 min
Histogram: 2 0 0 0 0 0 0 0 0 2
Neighs:              0 ave           0 max           0 min
Histogram: 4 0 0 0 0 0 0 0 0 0

Total # of neighbors = 0
Ave neighs/atom = 0
Neighbor list builds = 0
Dangerous builds = 0
=== Phase 3: Tension ===


---------------------------------------------------------------------
      Device Time Info (average): 
---------------------------------------------------------------------
CPU Neighbor:    0.0001 s.
CPU Cast/Pack:   0.0993 s.
CPU Driver_Time: 0.0368 s.
Cunfix eq

print '=== Phase 3: Tension ==='
=== Phase 3: Tension ===
reset_timestep 0

# 初期z寸法の記録
variable tmp equal lz
variable lz0 equal ${tmp}
variable lz0 equal 50.1939929453334
variable tmp delete

# z軸変形 + x,yゼロ圧力（Poisson収縮を許容）
fix deform_fix all deform 1 z erate 0.0005 remap x
fix npt_fix all npt temp 300.0 300.0 0.1 x 0.0 0.0 1.0 y 0.0 0.0 1.0 xy 0.0 0.0 1.0 xz 0.0 0.0 1.0 yz 0.0 0.0 1.0

# ひずみ・応力（sigma = -P [GPa]）
variable strain equal (lz-v_lz0)/v_lz0
variable stress equal -pzz/10000

# 欠陥解析用compute
# stress/atom: 単位は bar*Å³（実応力はボロノイ体積で割る必要あり）
compute peratom all stress/atom NULL
compute cna all cna/atom 3.087
compute csym all centro/atom fcc

thermo 100
thermo_style custom step temp v_strain v_stress pxx pyy pzz lx ly lz

fix out1 all print 100 "${strain} ${stress}" file stress_strain.txt screen no
dump 1 all custom 500 dump.lammpstrj id type x y z c_cna c_csym c_peratom[1] c_peratom[2] c_peratom[3] c_peratom[4] c_peratom[5] c_peratom[6]

variable should_halt equal "(v_strain > 0.05) * (v_stress < 0.1)"
fix halt_fix all halt 100 v_should_halt > 0.5 error soft

# 応力ドロップ検知（方法1: 移動平均法）
# 移動平均(window=10)と現在値の差が 2.0 GPa を超えたら停止
fix stress_avg all ave/time 100 1 100 v_stress ave window 10
variable stress_drop equal f_stress_avg-v_stress
variable should_halt_drop equal "(v_strain > 0.05) * (v_stress_drop > 2.0)"
fix halt_drop_fix all halt 100 v_should_halt_drop > 0.5 error soft

# 応力ドロップ検知（方法2: ピーク追跡法）
# ピーク応力からの落差が 2.0 GPa を超えたら停止
python peak_tracker input 1 v_stress return v_peak_stress format ff here """
def peak_tracker(stress):
    if not hasattr(peak_tracker, "peak"):
        peak_tracker.peak = 0.0
    peak_tracker.peak = max(peak_tracker.peak, stress)
    return peak_tracker.peak
"""
variable peak_stress python peak_tracker

variable drop_from_peak equal v_peak_stress-v_stress
variable should_halt_peak equal "(v_strain > 0.05) * (v_drop_from_peak > 2.0)"
fix halt_peak_fix all halt 100 v_should_halt_peak > 0.5 error soft

thermo_style custom step temp v_strain v_stress v_stress_drop v_drop_from_peak pxx pyy pzz lx ly lz

run 300000
Neighbor list info ...
  update: every = 1 steps, delay = 10 steps, check = yes
  max neighbors/atom: 2000, page size: 100000
  master list distance cutoff = 11.0375
  ghost atom cutoff = 11.0375
  binsize = 5.51875, bins = 10 10 10
  2 neighbor lists, perpetual/occasional/extra = 0 2 0
  (1) compute cna/atom, occasional
      attributes: full, newton on
      pair build: full/bin/atomonly
      stencil: full/bin/3d
      bin: standard
  (2) compute centro/atom, occasional
      attributes: full, newton on
      pair build: full/bin/       500   298.39832      0.0005        -0.035872889   -0.042967292    0.035872889   -521.89816      748.4882       358.72889      51.279593      53.254416      50.21909     
       600   300.75991      0.0006         0.0066643917  -0.073289633    0              382.6944      -612.47535     -66.643917      51.248655      53.297247      50.224109    
       700   305.68253      0.0007         0.032205588   -0.086476976    0             -802.23548      27.509749     -322.05588      51.297553      53.253071      50.229129    
       800   297.00894      0.0008         0.042862461   -0.086341199    0             -84.319195     -537.82402     -428.62461      51.248801      53.293606      50.234148    
       900   300.66472      0.0009         0.056920369   -0.090359197    0             -193.4292      -741.43357     -569.20369      51.248958      53.295319      50.239168    
      1000   302.4788       0.001          0.10562626    -0.1171286      0             -1390.5196      215.96538     -1056.2626      51.308084      53.238345      50.244187    
      1100   298.02232      0.0011         0.088050084   -0.079895782    0.017576173    372.74166     -1125.5926     -880.50084      51.228563      53.309465     0.0005        -0.035872889   -0.042967292    0.035872889   -521.89816      748.4882       358.72889      51.279593      53.254416      50.21909     
       600   300.75991      0.0006         0.0066643917  -0.073289633    0              382.6944      -612.47535     -66.643917      51.248655      53.297247      50.224109    
       700   305.68253      0.0007         0.032205588   -0.086476976    0             -802.23548      27.509749     -322.05588      51.297553      53.253071      50.229129    
       800   297.00894      0.0008         0.042862461   -0.086341199    0             -84.319195     -537.82402     -428.62461      51.248801      53.293606      50.234148    
       900   300.66472      0.0009         0.056920369   -0.090359197    0             -193.4292      -741.43357     -569.20369      51.248958      53.295319      50.239168    
      1000   302.4788       0.001          0.10562626    -0.1171286      0             -1390.5196      215.96538     -1056.2626      51.308084      53.238345      50.244187    
      1100   298.02232      0.0011         0.088050084   -0.079895782    0.017576173    372.74166     -1125.5926     -880.50084      51.228563      53.309465      50.249206    
      1200   298.02516      0.0012         0.10706709    -0.079138784    0             -753.89191      291.93016     -1070.6709      51.278021      53.247316      50.254226    
      1300   298.29305      0.0013         0.12300075    -0.075723963    0              165.10919     -417.12705     -1230.0075      51.250074      53.275563      50.259245    
      1400   302.40506      0.0014         0.13778998    -0.071358576    0             -185.22255      43.808188     -1377.8998      51.263223      53.25478       50.264265    
      1500   297.4909       0.0015         0.15502457    -0.069503415    0              79.04097       258.66286     -1550.2457      51.242081      53.263293      50.269284    
      1600   301.96654      0.0016         0.13672857    -0.038200996    0.018296002    632.02765     -120.52474     -1367.2857      51.225907      53.280149      50.274303    
      1700   301.20841      0.0017         0.15912729    -0.047907544    0             -450.98312      1037.1293     -1591.2729      51.279629      53.21297       50.279323    
      1800   297.27881      0.0018         0.20164489    -0.07454691     0              1229.7918     -204.55686     -2016.4489      51.19835       53.291247      50.284342    
      1900   299.10821      0.0019         0.18563644    -0.045666852    0.01600845    -99.995223      1144.7592     -1856.3644      51.258516      53.228558      50.289362    
      2000   297.28628      0.002          0.18319226    -0.035466069    0.018452633    858.13884      534.01135     -1831.9226      51.23494       53.242479      50.294381    
      2100   299.67557      0.0021               2800   298.65435      0.0028         0.38460276    -0.086995123    0.013056523    326.52288     -932.27641     -3846.0276      51.209959      53.276622      50.334536    
      2900   303.07748      0.0029         0.41230801    -0.092033217    0             -574.34622     -52.313881     -4123.0801      51.25325       53.234057      50.339556    
      3000   302.0133       0.003          0.4321489     -0.086978449    0             -115.62007     -400.66256     -4321.489       51.231887      53.244901      50.344575    
      3100   299.67341      0.0031         0.43317497    -0.067793557    0             -228.729       -210.35044     -4331.7497      51.226585      53.24616       50.349594    
      3200   301.61272      0.0032         0.45502565    -0.068852455    0             -270.09689      17.969083     -4550.2565      51.229686      53.242645      50.354614    
      3300   301.43897      0.0033         0.42383023    -0.025967509    0.03119542     409.99082     -106.63535     -4238.3023      51.222837      53.233503      50.359633    
      3400   299.85541      0.0034         0.4507785     -0.04057113     0.0042471423  -10.688542      552.88026     -4507.785       51.232766      53.209183      50.364653    
      3506    -0.086995123    0.013056523    326.52288     -932.27641     -3846.0276      51.209959      53.276622      50.334536    
      2900   303.07748      0.0029         0.41230801    -0.092033217    0             -574.34622     -52.313881     -4123.0801      51.25325       53.234057      50.339556    
      3000   302.0133       0.003          0.4321489     -0.086978449    0             -115.62007     -400.66256     -4321.489       51.231887      53.244901      50.344575    
      3100   299.67341      0.0031         0.43317497    -0.067793557    0             -228.729       -210.35044     -4331.7497      51.226585      53.24616       50.349594    
      3200   301.61272      0.0032         0.45502565    -0.068852455    0             -270.09689      17.969083     -4550.2565      51.229686      53.242645      50.354614    
      3300   301.43897      0.0033         0.42383023    -0.025967509    0.03119542     409.99082     -106.63535     -4238.3023      51.222837      53.233503      50.359633    
      3400   299.85541      0.0034         0.4507785     -0.04057113     0.0042471423  -10.688542      552.88026     -4507.785       51.232766      53.209183      50.364653    
      3500   301.34003      0.0035         0.45065282    -0.030546524    0.0043728287   949.74016      85.304029     -4506.5282      51.181042      53.257592      50.369672    
      3600   300.69889      0.0036         0.44687605    -0.018170331    0.0081495993   368.91106      1101.7813     -4468.7605      51.236085      53.191224      50.374691    
      3700   300.33909      0.0037         0.48088837    -0.043859743    0              778.9146       373.01951     -4808.8837      51.212817      53.212016      50.379711    
      3800   300.72508      0.0038         0.52963257    -0.078100966    0              793.06911      251.84389     -5296.3257      51.183546      53.247628      50.38473     
      3900   303.44128      0.0039         0.51854886    -0.056393171    0.01108371    -55.172221      441.37515     -5185.4886      51.226846      53.207737      50.38975     
      4000   302.33036      0.004          0.59582205    -0.11729904     0              256.15373     -492.80464     -5958.2205      51.212772      53.232474      50.394769    
      4100   301.58449      0.0041         0.57951931    -0.086361874    0.016302732   -755.94841      325.24884     -5795.1931      51.223869      53.214528      50.399788    
      4200   302.26886      0.0042         0.62411681    -0.11405025     0              2.2096077     -914.92783     -6241.1681      51.204005      53.25297       50.404808    
      4300   297.51243      0.0043         0.64267172    -0.11072102     0             -612.56424     -257.99482     -6426.7172      51.239689      53.209924      50.409827    
      4400   299.54595      0.0044               5100   300.09618      0.0051         0.71135376    -0.025365066    0.015727179    424.70415      832.89702     -7113.5376      51.192915      53.193139      50.449982    
      5200   299.09997      0.0052         0.71667075    -0.021426653    0.010410197    1428.705       316.07019     -7166.7075      51.157247      53.216743      50.455002    
      5300   300.71329      0.0053         0.73259062    -0.028354635    0              402.44781      1628.3421     -7325.9062      51.216347      53.153232      50.460021    
      5400   300.96377      0.0054         0.77301566    -0.057693692    0              1349.219       46.332678     -7730.1566      51.156663      53.218852      50.465041    
      5500   303.37107      0.0055         0.77213974    -0.0486428      0.000875922    276.69716      945.23295     -7721.3974      51.193368      53.182825      50.47006     
      5600   300.96605      0.0056         0.79511516    -0.060517894    0              426.03214      378.42191     -7951.1516      51.193553      53.188351      50.475079    
      5700   299.3746       0.0057         0.83640917    -0.089392772    0              540.11752     -49.729527     -8364.0917      51.178304      53.208994      50.480099    
      5800   298.62826      0.00585727179    424.70415      832.89702     -7113.5376      51.192915      53.193139      50.449982    
      5200   299.09997      0.0052         0.71667075    -0.021426653    0.010410197    1428.705       316.07019     -7166.7075      51.157247      53.216743      50.455002    
      5300   300.71329      0.0053         0.73259062    -0.028354635    0              402.44781      1628.3421     -7325.9062      51.216347      53.153232      50.460021    
      5400   300.96377      0.0054         0.77301566    -0.057693692    0              1349.219       46.332678     -7730.1566      51.156663      53.218852      50.465041    
      5500   303.37107      0.0055         0.77213974    -0.0486428      0.000875922    276.69716      945.23295     -7721.3974      51.193368      53.182825      50.47006     
      5600   300.96605      0.0056         0.79511516    -0.060517894    0              426.03214      378.42191     -7951.1516      51.193553      53.188351      50.475079    
      5700   299.3746       0.0057         0.83640917    -0.089392772    0              540.11752     -49.729527     -8364.0917      51.178304      53.208994      50.480099    
      5800   298.62826      0.0058         0.86772288    -0.106107       0             -483.24804      542.66897     -8677.2288      51.204986      53.181016      50.485118    
      5900   300.38481      0.0059         0.88515428    -0.10342899     0              389.40726     -718.91365     -8851.5428      51.169713      53.219306      50.490138    
      6000   298.81039      0.006          0.90296485    -0.10365117     0             -467.9183       194.28977     -9029.6485      51.203543      53.184252      50.495157    
      6100   298.66463      0.0061         0.91849263    -0.098465059    0             -284.905       -455.63422     -9184.9263      51.181018      53.20736       50.500176    
      6200   300.58034      0.0062         0.97019666    -0.12481649     0             -207.12555     -747.55158     -9701.9666      51.184179      53.205846      50.505196    
      6300   304.89713      0.0063         0.95498554    -0.087365882    0.015211118   -890.45508     -5.7326567     -9549.8554      51.217677      53.170618      50.510215    
      6400   300.24033      0.0064         0.9931664     -0.10353167     0              325.49056     -865.07082     -9931.664       51.153523      53.228474      50.515235    
      6500   301.45015      0.0065         1.0154192     -0.10145652     0             -941.21709      387.8931      -10154.192      51.211523      53.163496      50.520254    
      6600   301.32364      0.0066         0.98409628    -0.05123549     0.031322913    213.55108     -296.3068      -9840.9628      51.172074      53.190865      50.525273    
      6700   301.90093      0.0067               7400   300.30898      0.0074         1.1116803     -0.076943077    0              31.897963      200.94836     -11116.803      51.162701      53.178878      50.565428    
      7500   298.13646      0.0075         1.1426929     -0.0952283      0              398.40632     -405.62665     -11426.929      51.152619      53.184795      50.570448    
      7600   297.09936      0.0076         1.1623619     -0.097070738    0             -679.25538      398.79995     -11623.619      51.201598      53.143702      50.575467    
      7700   298.32233      0.0077         1.1723063     -0.087875614    0              70.392426     -931.28186     -11723.063      51.147581      53.202869      50.580487    
      7800   300.86873      0.0078         1.2387224     -0.13162006     0             -806.84026     -605.2925      -12387.224      51.17048       53.1844        50.585506    
      7900   296.37005      0.0079         1.2811903     -0.14788177     0             -1453.6176     -549.62603     -12811.903      51.205599      53.157214      50.590525    
      8000   299.60823      0.008          1.2622257     -0.10354213     0.018964573   -133.54153     -1736.3314     -12622.257      51.145235      53.219055      50.595545    
      8100   297.00032      0.0081         1.2607298     -0 200.94836     -11116.803      51.162701      53.178878      50.565428    
      7500   298.13646      0.0075         1.1426929     -0.0952283      0              398.40632     -405.62665     -11426.929      51.152619      53.184795      50.570448    
      7600   297.09936      0.0076         1.1623619     -0.097070738    0             -679.25538      398.79995     -11623.619      51.201598      53.143702      50.575467    
      7700   298.32233      0.0077         1.1723063     -0.087875614    0              70.392426     -931.28186     -11723.063      51.147581      53.202869      50.580487    
      7800   300.86873      0.0078         1.2387224     -0.13162006     0             -806.84026     -605.2925      -12387.224      51.17048       53.1844        50.585506    
      7900   296.37005      0.0079         1.2811903     -0.14788177     0             -1453.6176     -549.62603     -12811.903      51.205599      53.157214      50.590525    
      8000   299.60823      0.008          1.2622257     -0.10354213     0.018964573   -133.54153     -1736.3314     -12622.257      51.145235      53.219055      50.595545    
      8100   297.00032      0.0081         1.2607298     -0.080535056    0.020460525   -1585.3744      170.87389     -12607.298      51.190392      53.154209      50.600564    
      8200   302.01924      0.0082         1.2768122     -0.076536269    0.0043780965  -82.40652      -1047.5607     -12768.122      51.149589      53.187577      50.605584    
      8300   301.23027      0.0083         1.2765867     -0.058055859    0.0046035941  -510.08457      65.551735     -12765.867      51.17357       53.156092      50.610603    
      8400   299.78116      0.0084         1.279872      -0.044521954    0.0013183318   27.509178      26.421716     -12798.72       51.138903      53.171586      50.615622    
      8500   298.91995      0.0085         1.2881744     -0.03827623     0              637.29361      88.150934     -12881.744      51.134685      53.16634       50.620642    
      8600   303.27587      0.0086         1.3142041     -0.049121694    0             -179.14807      965.87543     -13142.041      51.180475      53.118544      50.625661    
      8700   298.08515      0.0087         1.3105181     -0.031614541    0.00368597     1034.7199      115.53731     -13105.181      51.115636      53.172115      50.630681    
      8800   298.39152      0.0088         1.3119198     -0.025696439    0.0022843394   632.17655      812.13368     -13119.198      51.132275      53.144913      50.6357      
      8900   304.98058      0.0089         1.3344553     -0.042905508    0              497.41041      1109.2559     -13344.553      51.155379      53.120726      50.640719    
      9000   299.46923      0.009                9700   298.44576      0.0097         1.51073       -0.08949094     0.016798943   -144.9494      -1069.7451     -15107.3        51.120518      53.177713      50.680875    
      9800   299.07195      0.0098         1.5503725     -0.10528813     0             -671.40587     -468.50289     -15503.725      51.140749      53.147205      50.685894    
      9900   297.47831      0.0099         1.5810938     -0.11134555     0             -635.91331     -329.77231     -15810.938      51.160355      53.124909      50.690913    
     10000   300.08483      0.01           1.5857043     -0.091492465    0             -28.519096     -956.80454     -15857.043      51.111215      53.172716      50.695933    
     10100   301.89218      0.0101         1.6142883     -0.096665375    0             -1080.9602      24.793618     -16142.883      51.151228      53.132206      50.700952    
     10200   299.74677      0.0102         1.6154275     -0.075960007    0              152.27515     -889.04946     -16154.275      51.117408      53.155784      50.705972    
     10300   300.87446      0.0103         1.6081535     -0.051744148    0.0072739824  -897.51124      499.82713     -16081.535      51.164254      53.096547      50.710991    
     10400   301.80908      0.0104         1.588018      -0.019644459    0.027409507      51.120518      53.177713      50.680875    
      9800   299.07195      0.0098         1.5503725     -0.10528813     0             -671.40587     -468.50289     -15503.725      51.140749      53.147205      50.685894    
      9900   297.47831      0.0099         1.5810938     -0.11134555     0             -635.91331     -329.77231     -15810.938      51.160355      53.124909      50.690913    
     10000   300.08483      0.01           1.5857043     -0.091492465    0             -28.519096     -956.80454     -15857.043      51.111215      53.172716      50.695933    
     10100   301.89218      0.0101         1.6142883     -0.096665375    0             -1080.9602      24.793618     -16142.883      51.151228      53.132206      50.700952    
     10200   299.74677      0.0102         1.6154275     -0.075960007    0              152.27515     -889.04946     -16154.275      51.117408      53.155784      50.705972    
     10300   300.87446      0.0103         1.6081535     -0.051744148    0.0072739824  -897.51124      499.82713     -16081.535      51.164254      53.096547      50.710991    
     10400   301.80908      0.0104         1.588018      -0.019644459    0.027409507    1137.6781     -157.4424      -15880.18       51.074702      53.169741      50.71601     
     10500   299.58165      0.0105         1.6092092     -0.030156601    0.0062183057   756.3996       1327.926      -16092.092      51.127158      53.092237      50.72103     
     10600   299.84091      0.0106         1.61682       -0.028838293    0              1093.8167      1147.0241     -16168.2        51.118389      53.093525      50.726049    
     10700   302.03181      0.0107         1.6054875     -0.0080300569   0.011332488    1422.6185      655.81453     -16054.875      51.077127      53.141811      50.731069    
     10800   300.52279      0.0108         1.6583208     -0.050068465    0              471.54302      953.52865     -16583.208      51.117012      53.1063        50.736088    
     10900   299.13396      0.0109         1.6745792     -0.056978357    0              939.41847      391.03927     -16745.792      51.101694      53.118523      50.741107    
     11000   296.65365      0.011          1.6845796     -0.057091203    0             -31.029728      958.23721     -16845.796      51.1186        53.10147       50.746127    
     11100   298.71461      0.0111         1.7296684     -0.090642013    0              434.32225     -52.418315     -17296.684      51.088744      53.147708      50.751146    
     11200   300.3654       0.0112         1.7506707     -0.098120012    0             -172.81407     -24.426753     -17506.707      51.123386      53.110231      50.756166    
     11300   296.17622      0.0113              12000   300.68212      0.012          1.8562393     -0.021833281    0.0357178     -38.336432      439.76375     -18562.393      51.101333      53.104702      50.796321    
     12100   298.95104      0.0121         1.8564353     -0.0093526065   0.035521784    904.69802      173.58072     -18564.353      51.070174      53.125278      50.80134     
     12200   299.43487      0.0122         1.8944094     -0.032952876    0              114.83291      1327.3206     -18944.094      51.127078      53.051882      50.80636     
     12300   298.99088      0.0123         1.8989899     -0.027266084    0              1277.1799      265.76618     -18989.899      51.060105      53.119446      50.811379    
     12400   304.18025      0.0124         1.9054614     -0.025960471    0              555.24201      711.01293     -19054.614      51.089074      53.093707      50.816398    
     12500   299.98709      0.0125         1.9359171     -0.049222358    0              572.6411       948.20366     -19359.171      51.095247      53.074783      50.821418    
     12600   298.72047      0.0126         1.9393271     -0.046124189    0              1153.744       748.38794     -19393.271      51.071347      53.094521      50.826437    
     12700   304.89093      0.0127         1.9615726     -0.06140814     0              513.29085      896.2204702      50.796321    
     12100   298.95104      0.0121         1.8564353     -0.0093526065   0.035521784    904.69802      173.58072     -18564.353      51.070174      53.125278      50.80134     
     12200   299.43487      0.0122         1.8944094     -0.032952876    0              114.83291      1327.3206     -18944.094      51.127078      53.051882      50.80636     
     12300   298.99088      0.0123         1.8989899     -0.027266084    0              1277.1799      265.76618     -18989.899      51.060105      53.119446      50.811379    
     12400   304.18025      0.0124         1.9054614     -0.025960471    0              555.24201      711.01293     -19054.614      51.089074      53.093707      50.816398    
     12500   299.98709      0.0125         1.9359171     -0.049222358    0              572.6411       948.20366     -19359.171      51.095247      53.074783      50.821418    
     12600   298.72047      0.0126         1.9393271     -0.046124189    0              1153.744       748.38794     -19393.271      51.071347      53.094521      50.826437    
     12700   304.89093      0.0127         1.9615726     -0.06140814     0              513.29085      896.2239      -19615.726      51.073873      53.095416      50.831457    
     12800   297.74148      0.0128         1.972515      -0.063139913    0              796.44439      682.64382     -19725.15       51.089829      53.071747      50.836476    
     12900   298.33376      0.0129         2.0135997     -0.090153006    0              262.3561       415.50462     -20135.997      51.090071      53.08435       50.841495    
     13000   302.2156       0.013          2.0440813     -0.10185037     0             -264.43594     -459.41518     -20440.813      51.074799      53.122502      50.846515    
     13100   302.29276      0.0131         2.1447012     -0.17364376     0             -1204.0359     -1185.2501     -21447.012      51.116236      53.104776      50.851534    
     13200   299.3347       0.0132         2.160508      -0.16284068     0             -1540.1535     -1393.7079     -21605.08       51.125092      53.099352      50.856554    
     13300   301.03926      0.0133         2.1221401     -0.10215773     0.038367931   -1329.4611     -1275.4135     -21221.401      51.098434      53.125357      50.861573    
     13400   300.75442      0.0134         2.151256      -0.10669423     0.0092519686  -950.43593     -1181.945      -21512.56       51.094918      53.112784      50.866592    
     13500   301.12825      0.0135         2.1913129     -0.12121149     0             -1019.1699     -823.32242     -21913.129      51.104402      53.094121      50.871612    
     13600   301.36428      0.0136         2.1781127     -0.08413273     0.013200206   -654.66834     -652.70271     -21781.127      51.093337      53.098883      50.876631    
     13700   300.43712      0.0137              14400   299.80254      0.0144         2.2395926     -0.055248066    0              1252.384       515.0227      -22395.926      51.053812      53.065194      50.916786    
     14500   303.99107      0.0145         2.2876234     -0.093647855    0              63.413926      573.74555     -22876.234      51.08133       53.04725       50.921806    
     14600   299.73874      0.0146         2.2975853     -0.091662491    0             -20.59379       119.07056     -22975.853      51.07375       53.066275      50.926825    
     14700   304.17923      0.0147         2.3521404     -0.12807588     0              106.42178     -1062.2622     -23521.404      51.061538      53.102707      50.931845    
     14800   300.12925      0.0148         2.3699425     -0.12677356     0             -1032.4901     -90.007045     -23699.425      51.098499      53.055927      50.936864    
     14900   298.80188      0.0149         2.3996154     -0.13424498     0             -511.10124     -774.32168     -23996.154      51.072773      53.081643      50.941883    
     15000   302.75071      0.015          2.3937822     -0.10583879     0.0058332413  -507.85781     -869.10363     -23937.822      5     14400   299.80254      0.0144         2.2395926     -0.055248066    0              1252.384       515.0227      -22395.926      51.053812      53.065194      50.916786    
     14500   303.99107      0.0145         2.2876234     -0.093647855    0              63.413926      573.74555     -22876.234      51.08133       53.04725       50.921806    
     14600   299.73874      0.0146         2.2975853     -0.091662491    0             -20.59379       119.07056     -22975.853      51.07375       53.066275      50.926825    
     14700   304.17923      0.0147         2.3521404     -0.12807588     0              106.42178     -1062.2622     -23521.404      51.061538      53.102707      50.931845    
     14800   300.12925      0.0148         2.3699425     -0.12677356     0             -1032.4901     -90.007045     -23699.425      51.098499      53.055927      50.936864    
     14900   298.80188      0.0149         2.3996154     -0.13424498     0             -511.10124     -774.32168     -23996.154      51.072773      53.081643      50.941883    
     15000   302.75071      0.015          2.3937822     -0.10583879     0.0058332413  -507.85781     -869.10363     -23937.822      51.066873      53.090806      50.946903    
     15100   300.17107      0.0151         2.4294307     -0.11481188     0             -983.47901     -304.18009     -24294.307      51.099097      53.051828      50.951922    
     15200   298.98655      0.0152         2.439852      -0.10065137     0             -165.75715     -958.59512     -24398.52       51.05213       53.092641      50.956942    
     15300   300.73909      0.0153         2.4495909     -0.083675361    0             -703.64099      177.33812     -24495.909      51.072179      53.055529      50.961961    
     15400   302.33871      0.0154         2.4125468     -0.029335842    0.037044097    508.22035     -91.955229     -24125.468      51.056252      53.059808      50.96698     
     15500   298.61614      0.0155         2.4464243     -0.047333267    0.0031665841   419.75071      869.95878     -24464.243      51.064955      53.027013      50.972       
     15600   299.39147      0.0156         2.4087057      0.0014973823   0.040885197    1159.447       1254.956      -24087.057      51.027109      53.044662      50.977019    
     15700   303.10731      0.0157         2.424654      -0.0071995132   0.024936946    1694.3747      1185.3201     -24246.54       51.016795      53.047086      50.982039    
     15800   306.43487      0.0158         2.4173943      0.0048053189   0.032196593    729.77633      2083.6345     -24173.943      51.072259      52.987944      50.987058    
     15900   300.93061      0.0159         2.4547908     -0.027073586    0              1751.5544      703.31995     -24547.908      50.996369      53.065561      50.992077    
     16000   298.81138      0.016               16700   300.51475      0.0167         2.7151543     -0.12922691     0             -1146.211      -1231.2812     -27151.543      51.064067      53.064702      51.032233    
     16800   295.97304      0.0168         2.7178353     -0.10186385     0             -863.47282     -826.43747     -27178.353      51.061174      53.0465        51.037252    
     16900   301.3124       0.0169         2.7183088     -0.075985572    0             -457.53781     -523.47182     -27183.088      51.036298      53.059197      51.042271    
     17000   298.98498      0.017          2.7163301     -0.051605121    0.0019786908  -50.3903        120.14729     -27163.301      51.040157      53.039568      51.047291    
     17100   303.71431      0.0171         2.7067322     -0.025821259    0.011576589    467.50853      206.29039     -27067.322      51.037662      53.026711      51.05231     
     17200   299.29083      0.0172         2.6994904     -0.0045717419   0.018818424    922.68037      1130.9709     -26994.904      51.010445      53.023612      51.05733     
     17300   300.2622       0.0173         2.6888381      0.010342965    0.029470736    1525.6991      1328.5808     -26888.381      51.002111      53.022742     0.0167         2.7151543     -0.12922691     0             -1146.211      -1231.2812     -27151.543      51.064067      53.064702      51.032233    
     16800   295.97304      0.0168         2.7178353     -0.10186385     0             -863.47282     -826.43747     -27178.353      51.061174      53.0465        51.037252    
     16900   301.3124       0.0169         2.7183088     -0.075985572    0             -457.53781     -523.47182     -27183.088      51.036298      53.059197      51.042271    
     17000   298.98498      0.017          2.7163301     -0.051605121    0.0019786908  -50.3903        120.14729     -27163.301      51.040157      53.039568      51.047291    
     17100   303.71431      0.0171         2.7067322     -0.025821259    0.011576589    467.50853      206.29039     -27067.322      51.037662      53.026711      51.05231     
     17200   299.29083      0.0172         2.6994904     -0.0045717419   0.018818424    922.68037      1130.9709     -26994.904      51.010445      53.023612      51.05733     
     17300   300.2622       0.0173         2.6888381      0.010342965    0.029470736    1525.6991      1328.5808     -26888.381      51.002111      53.022742      51.062349    
     17400   302.50594      0.0174         2.6868297      0.017645898    0.031479087    1547.2887      1623.762      -26868.297      51.022162      52.990462      51.067368    
     17500   299.17638      0.0175         2.6872601      0.016483762    0.031048676    1484.08        1921.208      -26872.601      51.006275      52.999441      51.072388    
     17600   301.10211      0.0176         2.74359       -0.035553088    0              1776.0898      885.09329     -27435.9        50.978814      53.034549      51.077407    
     17700   302.61761      0.0177         2.792334      -0.076579126    0              355.90196      1046.0721     -27923.34       51.046025      52.992418      51.082427    
     17800   300.79764      0.0178         2.8134223     -0.088108707    0              80.629656      97.31595      -28134.223      51.026478      53.022914      51.087446    
     17900   299.5689       0.0179         2.8608418     -0.12127492     0             -56.298495     -403.31848     -28608.418      51.018925      53.039601      51.092465    
     18000   303.11368      0.018          2.904172      -0.14582093     0             -473.48163     -678.45367     -29041.72       51.041184      53.026679      51.097485    
     18100   301.64445      0.0181         2.9217961     -0.14193864     0             -629.22957     -604.32764     -29217.961      51.04321       53.025597      51.102504    
     18200   302.37402      0.0182         2.9450109     -0.14060136     0             -506.9786      -870.11086     -29450.109      51.023191      53.044643      51.107524    
     18300   294.95029      0.0183              19000   304.70626      0.019          2.9761194     -0.025545896    0.018603241    1295.1884      1327.9873     -29761.194      50.996005      52.978352      51.147679    
     19100   300.08337      0.0191         2.9847904     -0.027917521    0.0099321817   879.29411      1594.4514     -29847.904      51.003126      52.975318      51.152698    
     19200   301.5065       0.0192         3.0172093     -0.053116554    0              1321.19        394.48962     -30172.093      50.972103      53.017525      51.157718    
     19300   294.79649      0.0193         3.0418149     -0.066582517    0              176.1549       1055.8567     -30418.149      51.017175      52.973773      51.162737    
     19400   303.40496      0.0194         3.0986531     -0.10902207     0              390.71875     -229.57786     -30986.531      50.994517      53.017836      51.167756    
     19500   301.62639      0.0195         3.1124347     -0.10563892     0             -408.49445     -20.985731     -31124.347      51.007917      53.007919      51.172776    
     19600   297.94122      0.0196         3.1465145     -0.12453949     0             -611.85099     -348.80055     -31465.145      51.010701      53.00833       51.177795    
     1994     -0.025545896    0.018603241    1295.1884      1327.9873     -29761.194      50.996005      52.978352      51.147679    
     19100   300.08337      0.0191         2.9847904     -0.027917521    0.0099321817   879.29411      1594.4514     -29847.904      51.003126      52.975318      51.152698    
     19200   301.5065       0.0192         3.0172093     -0.053116554    0              1321.19        394.48962     -30172.093      50.972103      53.017525      51.157718    
     19300   294.79649      0.0193         3.0418149     -0.066582517    0              176.1549       1055.8567     -30418.149      51.017175      52.973773      51.162737    
     19400   303.40496      0.0194         3.0986531     -0.10902207     0              390.71875     -229.57786     -30986.531      50.994517      53.017836      51.167756    
     19500   301.62639      0.0195         3.1124347     -0.10563892     0             -408.49445     -20.985731     -31124.347      51.007917      53.007919      51.172776    
     19600   297.94122      0.0196         3.1465145     -0.12453949     0             -611.85099     -348.80055     -31465.145      51.010701      53.00833       51.177795    
     19700   298.04048      0.0197         3.1741663     -0.12658938     0             -318.45209     -1049.9936     -31741.663      51.006338      53.023583      51.182815    
     19800   300.53464      0.0198         3.1764465     -0.10696089     0             -1274.1698     -295.1957      -31764.465      51.029196      52.998787      51.187834    
     19900   298.36161      0.0199         3.2236046     -0.1284292      0             -133.81791     -1013.4838     -32236.046      50.982489      53.035541      51.192853    
     20000   297.66218      0.02           3.1812352     -0.065548204    0.042369416   -695.91388     -50.959902     -31812.352      51.026286      52.981192      51.197873    
     20100   298.3496       0.0201         3.2073296     -0.069388708    0.016274998   -218.65322     -152.77625     -32073.296      51.003371      52.997485      51.202892    
     20200   301.8939       0.0202         3.2111277     -0.053794992    0.012476877    443.10237     -485.4187      -32111.277      50.973319      53.013156      51.207912    
     20300   299.48942      0.0203         3.2278969     -0.051955984    0             -409.38583      971.27226     -32278.969      51.016246      52.955709      51.212931    
     20400   301.14326      0.0204         3.2030552     -0.016674096    0.024841683    1513.5961      25.929702     -32030.552      50.954752      53.006916      51.21795     
     20500   299.27806      0.0205         3.1936234      0.00087653959  0.034273446    828.12899      1897.3172     -31936.234      50.985611      52.950071      51.22297     
     20600   301.89006      0.0206              21300   302.49335      0.0213         3.4160242     -0.11280857     0             -682.54551     -515.7591      -34160.242      50.999462      52.986054      51.263125    
     21400   299.5715       0.0214         3.4437512     -0.11646598     0             -402.41131     -654.71844     -34437.512      50.987753      52.987441      51.268144    
     21500   299.793        0.0215         3.4291832     -0.078342012    0.014567987   -509.34453     -242.9933      -34291.832      50.984609      52.982203      51.273164    
     21600   304.63248      0.0216         3.4327204     -0.060025247    0.011030789    51.948869     -505.58024     -34327.204      50.97163       52.992937      51.278183    
     21700   301.81057      0.0217         3.4738146     -0.078329275    0             -160.8187       99.365161     -34738.146      50.993642      52.958044      51.283203    
     21800   296.91377      0.0218         3.4573275     -0.045344649    0.016487106    208.46485      657.11086     -34573.275      50.969069      52.961462      51.288222    
     21900   301.68501      0.0219         3.454107      -0.02724156     0.019707618    1214.5066      516.50264     -34541.07       50.933347      52.987882      51.293241    
     22000   301.12765      0.02            -682.54551     -515.7591      -34160.242      50.999462      52.986054      51.263125    
     21400   299.5715       0.0214         3.4437512     -0.11646598     0             -402.41131     -654.71844     -34437.512      50.987753      52.987441      51.268144    
     21500   299.793        0.0215         3.4291832     -0.078342012    0.014567987   -509.34453     -242.9933      -34291.832      50.984609      52.982203      51.273164    
     21600   304.63248      0.0216         3.4327204     -0.060025247    0.011030789    51.948869     -505.58024     -34327.204      50.97163       52.992937      51.278183    
     21700   301.81057      0.0217         3.4738146     -0.078329275    0             -160.8187       99.365161     -34738.146      50.993642      52.958044      51.283203    
     21800   296.91377      0.0218         3.4573275     -0.045344649    0.016487106    208.46485      657.11086     -34573.275      50.969069      52.961462      51.288222    
     21900   301.68501      0.0219         3.454107      -0.02724156     0.019707618    1214.5066      516.50264     -34541.07       50.933347      52.987882      51.293241    
     22000   301.12765      0.022          3.4600125     -0.024681412    0.013802085    571.14036      1517.2638     -34600.125      50.994039      52.913449      51.298261    
     22100   298.39538      0.0221         3.4768224     -0.032460173    0              1261.445       463.97438     -34768.224      50.933574      52.974192      51.30328     
     22200   303.57612      0.0222         3.5207757     -0.064321847    0              481.56599      852.42667     -35207.757      50.957899      52.959569      51.3083      
     22300   301.26427      0.0223         3.5079771     -0.042327935    0.012798624    641.75614      629.65913     -35079.771      50.965682      52.949368      51.313319    
     22400   297.72974      0.0224         3.5361849     -0.061292405    0              323.6697       86.486637     -35361.849      50.958078      52.961905      51.318338    
     22500   301.65627      0.0225         3.5779348     -0.08816713     0             -238.01606      142.4306      -35779.348      50.969409      52.960354      51.323358    
     22600   299.38007      0.0226         3.6098846     -0.10240049     0             -521.62729     -473.55522     -36098.846      50.980808      52.970927      51.328377    
     22700   298.04844      0.0227         3.6521262     -0.12681096     0             -617.99052     -609.48821     -36521.262      50.985654      52.963085      51.333397    
     22800   299.47063      0.0228         3.6894831     -0.14095228     0             -823.4204      -819.94865     -36894.831      50.975415      52.974438      51.338416    
     22900   300.37471      0.0229              23600   305.6929       0.0236         3.7151815     -0.019927917    0.0082623566   299.14038      512.55809     -37151.815      50.950758      52.933977      51.378571    
     23700   298.23093      0.0237         3.7563201     -0.05064712     0              346.77129      646.75245     -37563.201      50.948965      52.929512      51.383591    
     23800   299.42501      0.0238         3.7571643     -0.044723276    0              692.93468      36.095616     -37571.643      50.92897       52.952439      51.38861     
     23900   300.60967      0.0239         3.7854998     -0.062143171    0              168.56357      534.84076     -37854.998      50.954772      52.926669      51.393629    
     24000   302.76632      0.024          3.7965941     -0.060803198    0              162.49948      126.91421     -37965.941      50.946733      52.933906      51.398649    
     24100   301.58662      0.0241         3.8434657     -0.095672688    0             -166.72734      121.12213     -38434.657      50.944769      52.94221       51.403668    
     24200   304.47731      0.0242         3.8662403     -0.10359956     0             -257.66803     -421.89953     -38662.403      50.939963      52.959978      51.408688    
     24300   300.84696      0.0243         3.907144         512.55809     -37151.815      50.950758      52.933977      51.378571    
     23700   298.23093      0.0237         3.7563201     -0.05064712     0              346.77129      646.75245     -37563.201      50.948965      52.929512      51.383591    
     23800   299.42501      0.0238         3.7571643     -0.044723276    0              692.93468      36.095616     -37571.643      50.92897       52.952439      51.38861     
     23900   300.60967      0.0239         3.7854998     -0.062143171    0              168.56357      534.84076     -37854.998      50.954772      52.926669      51.393629    
     24000   302.76632      0.024          3.7965941     -0.060803198    0              162.49948      126.91421     -37965.941      50.946733      52.933906      51.398649    
     24100   301.58662      0.0241         3.8434657     -0.095672688    0             -166.72734      121.12213     -38434.657      50.944769      52.94221       51.403668    
     24200   304.47731      0.0242         3.8662403     -0.10359956     0             -257.66803     -421.89953     -38662.403      50.939963      52.959978      51.408688    
     24300   300.84696      0.0243         3.907144      -0.12310476     0             -563.24887     -462.55        -39071.44       50.965468      52.93379       51.413707    
     24400   298.20641      0.0244         3.9341839     -0.12805942     0             -933.28846     -558.02052     -39341.839      50.967397      52.943815      51.418726    
     24500   301.34683      0.0245         3.9382556     -0.10825065     0             -922.38178     -1450.3788     -39382.556      50.938891      52.983523      51.423746    
     24600   303.55959      0.0246         3.9709264     -0.11534703     0             -1636.0922     -804.53058     -39709.264      50.987924      52.931009      51.428765    
     24700   298.75318      0.0247         3.9547151     -0.079296145    0.016211382   -566.97916     -917.38686     -39547.151      50.965154      52.9333        51.433785    
     24800   298.94382      0.0248         3.9211661     -0.029347038    0.049760309   -4.0703593     -349.0427      -39211.661      50.917092      52.959469      51.438804    
     24900   302.08473      0.0249         3.9402892     -0.032991204    0.030637202   -207.70171      663.66481     -39402.892      50.952193      52.913401      51.443823    
     25000   299.24971      0.025          3.9372314     -0.015869645    0.033695024    711.63846      5.828117      -39372.314      50.931568      52.916088      51.448843    
     25100   303.01172      0.0251         3.9738971     -0.039492158    0              300.69652      612.16505     -39738.971      50.928098      52.916204      51.453862    
     25200   297.691        0.0252              25900   302.81553      0.0259         4.1271821     -0.10489124     0             -974.67927     -369.34633     -41271.821      50.959576      52.907345      51.494017    
     26000   298.24723      0.026          4.1630898     -0.11821316     0             -767.41206     -1050.4944     -41630.898      50.936992      52.931368      51.499037    
     26100   300.80483      0.0261         4.2024652     -0.13473174     0             -1059.6055     -1126.0359     -42024.652      50.924356      52.947005      51.504056    
     26200   300.22889      0.0262         4.1792056     -0.089480531    0.023259583   -1005.9542     -892.18145     -41792.056      50.950873      52.920223      51.509076    
     26300   299.60759      0.0263         4.2284539     -0.1129921      0             -548.37833     -1006.7313     -42284.539      50.930668      52.933145      51.514095    
     26400   296.93295      0.0264         4.2252158     -0.087316703    0.003238168   -857.06737      70.025785     -42252.158      50.938422      52.90661       51.519114    
     26500   304.14238      0.0265         4.1998789     -0.043134295    0.028575035    425.11766     -655.4733      -41998.789      50.896872      52.935809      51.524134    
     26600   297.75967      0.0266         4.1792476     -0.011402835    0.049206321      50.959576      52.907345      51.494017    
     26000   298.24723      0.026          4.1630898     -0.11821316     0             -767.41206     -1050.4944     -41630.898      50.936992      52.931368      51.499037    
     26100   300.80483      0.0261         4.2024652     -0.13473174     0             -1059.6055     -1126.0359     -42024.652      50.924356      52.947005      51.504056    
     26200   300.22889      0.0262         4.1792056     -0.089480531    0.023259583   -1005.9542     -892.18145     -41792.056      50.950873      52.920223      51.509076    
     26300   299.60759      0.0263         4.2284539     -0.1129921      0             -548.37833     -1006.7313     -42284.539      50.930668      52.933145      51.514095    
     26400   296.93295      0.0264         4.2252158     -0.087316703    0.003238168   -857.06737      70.025785     -42252.158      50.938422      52.90661       51.519114    
     26500   304.14238      0.0265         4.1998789     -0.043134295    0.028575035    425.11766     -655.4733      -41998.789      50.896872      52.935809      51.524134    
     26600   297.75967      0.0266         4.1792476     -0.011402835    0.049206319   -117.4652       822.5601      -41792.476      50.94218       52.87425       51.529153    
     26700   298.45         0.0267         4.2301862     -0.04532339     0              772.79892     -4.3679486     -42301.862      50.893935      52.916033      51.534173    
     26800   300.23437      0.0268         4.2405024     -0.042959627    0              370.24116      276.88104     -42405.024      50.899481      52.909691      51.539192    
     26900   304.43007      0.0269         4.26852       -0.056843431    0             -93.754012      662.30751     -42685.2        50.931608      52.882817      51.544211    
     27000   298.8224       0.027          4.2755149     -0.052595888    0              789.57658     -237.91059     -42755.149      50.891831      52.914756      51.549231    
     27100   301.13014      0.0271         4.2935413     -0.061514658    0             -135.98103      644.95845     -42935.413      50.92144       52.880416      51.55425     
     27200   304.88346      0.0272         4.3201918     -0.074066506    0              559.88027     -292.38041     -43201.918      50.897344      52.91229       51.55927     
     27300   299.18688      0.0273         4.3213036     -0.065893364    0             -162.08091      460.49921     -43213.036      50.927295      52.87303       51.564289    
     27400   298.48916      0.0274         4.3605155     -0.091575271    0              3.4736705     -482.82902     -43605.155      50.900945      52.909971      51.569308    
     27500   303.52136      0.0275              28200   302.89447      0.0282         4.4558637     -0.019415403    0.02837987     446.73147      17.663264     -44558.637      50.886221      52.888257      51.609464    
     28300   300.60101      0.0283         4.4842883     -0.031541531    0              184.47536      781.31795     -44842.883      50.905431      52.855478      51.614483    
     28400   298.85014      0.0284         4.4667038     -0.0033381963   0.017584505    1091.5924      315.64117     -44667.038      50.865654      52.885301      51.619502    
     28500   304.25967      0.0285         4.4687896      0.0017353222   0.015498647    495.89202      1084.9853     -44687.896      50.889053      52.859088      51.624522    
     28600   298.98647      0.0286         4.5003096     -0.023486761    0              802.35883      646.61918     -45003.096      50.885         52.860282      51.629541    
     28700   294.9699       0.0287         4.5141861     -0.03429252     0              633.22557      755.28125     -45141.861      50.881526      52.85426       51.634561    
     28800   296.2464       0.0288         4.5467767     -0.059760285    0              543.89984      361.59348     -45467.767      50.878629      52.873895      51.63958     
     28900   298.34722      0.0289         4.5468879     -0.053161947    0              79.487563     -287..888257      51.609464    
     28300   300.60101      0.0283         4.4842883     -0.031541531    0              184.47536      781.31795     -44842.883      50.905431      52.855478      51.614483    
     28400   298.85014      0.0284         4.4667038     -0.0033381963   0.017584505    1091.5924      315.64117     -44667.038      50.865654      52.885301      51.619502    
     28500   304.25967      0.0285         4.4687896      0.0017353222   0.015498647    495.89202      1084.9853     -44687.896      50.889053      52.859088      51.624522    
     28600   298.98647      0.0286         4.5003096     -0.023486761    0              802.35883      646.61918     -45003.096      50.885         52.860282      51.629541    
     28700   294.9699       0.0287         4.5141861     -0.03429252     0              633.22557      755.28125     -45141.861      50.881526      52.85426       51.634561    
     28800   296.2464       0.0288         4.5467767     -0.059760285    0              543.89984      361.59348     -45467.767      50.878629      52.873895      51.63958     
     28900   298.34722      0.0289         4.5468879     -0.053161947    0              79.487563     -287.28241     -45468.879      50.893965      52.874777      51.644599    
     29000   299.34257      0.029          4.6507831     -0.13889989     0             -1267.1175     -246.67823     -46507.831      50.93037       52.860517      51.649619    
     29100   298.54209      0.0291         4.6827876     -0.15104999     0             -592.17494     -1878.3299     -46827.876      50.872093      52.928572      51.654638    
     29200   300.5918       0.0292         4.6854425     -0.13074696     0             -1680.0722     -1138.781      -46854.425      50.934755      52.872425      51.659658    
     29300   299.77435      0.0293         4.6969897     -0.12102401     0             -1111.2805     -1740.6281     -46969.897      50.903254      52.897232      51.664677    
     29400   293.47065      0.0294         4.6580456     -0.062945804    0.038944019   -1105.5442     -869.07169     -46580.456      50.898429      52.881641      51.669696    
     29500   298.98634      0.0295         4.6928377     -0.075333025    0.0041519937  -818.82948     -853.44037     -46928.377      50.894051      52.885167      51.674716    
     29600   301.93791      0.0296         4.6880973     -0.051813884    0.0088923608  -349.22242     -724.03411     -46880.973      50.884808      52.878428      51.679735    
     29700   296.704        0.0297         4.7009027     -0.045947629    0             -311.78099      418.46293     -47009.027      50.895219      52.843306      51.684755    
     29800   300.62853      0.0298              30500   301.26356      0.0305         4.7905479     -0.081127614    0              424.73175     -136.96546     -47905.479      50.85743       52.870067      51.72491     
     30600   298.74788      0.0306         4.8223945     -0.099544513    0             -761.52222      94.310185     -48223.945      50.898981      52.835703      51.729929    
     30700   299.91642      0.0307         4.8839993     -0.14283965     0             -474.05369     -937.65354     -48839.993      50.854816      52.892257      51.734949    
     30800   303.57296      0.0308         4.8808232     -0.12230024     0.0031761286  -1324.492      -1035.8207     -48808.232      50.890148      52.873459      51.739968    
     30900   299.40388      0.0309         4.9301021     -0.14274467     0             -1318.8095     -1043.5789     -49301.021      50.893622      52.8682        51.744987    
     31000   298.59968      0.031          4.9301068     -0.11851857     0             -940.29605     -989.73818     -49301.068      50.868668      52.874092      51.750007    
     31100   300.07298      0.0311         4.9336156     -0.094864024    0             -647.99887     -539.48845     -49336.156      50.862772      52.869294      51.755026    
     31200   299.65113      0.0312         4.8841949     -0.027546135    0.049420678   -113.92821     -261.37806     -48841.949      
     30600   298.74788      0.0306         4.8223945     -0.099544513    0             -761.52222      94.310185     -48223.945      50.898981      52.835703      51.729929    
     30700   299.91642      0.0307         4.8839993     -0.14283965     0             -474.05369     -937.65354     -48839.993      50.854816      52.892257      51.734949    
     30800   303.57296      0.0308         4.8808232     -0.12230024     0.0031761286  -1324.492      -1035.8207     -48808.232      50.890148      52.873459      51.739968    
     30900   299.40388      0.0309         4.9301021     -0.14274467     0             -1318.8095     -1043.5789     -49301.021      50.893622      52.8682        51.744987    
     31000   298.59968      0.031          4.9301068     -0.11851857     0             -940.29605     -989.73818     -49301.068      50.868668      52.874092      51.750007    
     31100   300.07298      0.0311         4.9336156     -0.094864024    0             -647.99887     -539.48845     -49336.156      50.862772      52.869294      51.755026    
     31200   299.65113      0.0312         4.8841949     -0.027546135    0.049420678   -113.92821     -261.37806     -48841.949      50.870142      52.849604      51.760046    
     31300   299.85019      0.0313         4.9253354     -0.050748837    0.0082802066   199.34344     -66.014211     -49253.354      50.853733      52.847556      51.765065    
     31400   300.1306       0.0314         4.9099091     -0.020806258    0.023706458    318.90866      426.05934     -49099.091      50.853915      52.83412       51.770084    
     31500   303.59305      0.0315         4.8977384      0.0020835211   0.035877185    658.68751      643.67703     -48977.384      50.843289      52.835175      51.775104    
     31600   303.45835      0.0316         4.9331217     -0.022227097    0.00049384255  967.79475      828.51913     -49331.217      50.838041      52.828428      51.780123    
     31700   299.04033      0.0317         4.9375906     -0.021336834    0              960.64189      1424.7075     -49375.906      50.839284      52.815186      51.785143    
     31800   303.93162      0.0318         4.9532661     -0.029768018    0              1526.0475      578.30164     -49532.661      50.817217      52.842916      51.790162    
     31900   299.2127       0.0319         4.9984216     -0.06809162     0              396.826        1127.3665     -49984.216      50.859802      52.798221      51.795181    
     32000   299.5611       0.032          5.0154086     -0.076548427    0              514.00179      61.10054      -50154.086      50.827379      52.850194      51.800201    
     32100   300.26899      0.0321         5.0473095     -0.097079876    0             -456.43261      0.025136749   -50473.095      50.858305      52.835643      51.80522     
     32200   298.31632      0.0322              32900   296.1405       0.0329         5.1465108     -0.036014486    0.012407342    313.48178      373.32605     -51465.108      50.834433      52.817981      51.845375    
     33000   298.38231      0.033          5.1669223     -0.041274675    0              538.01916      292.50668     -51669.223      50.830967      52.808952      51.850395    
     33100   302.07537      0.0331         5.1404537     -0.0054915923   0.026468665    997.21423      180.13305     -51404.537      50.802968      52.835704      51.855414    
     33200   296.93079      0.0332         5.1641912     -0.023662846    0.0027311099   370.56227      1283.273      -51641.912      50.839248      52.79275       51.860434    
     33300   299.66467      0.0333         5.20936       -0.05798526     0              1032.1888      199.82484     -52093.6        50.804668      52.825559      51.865453    
     33400   301.21411      0.0334         5.2098473     -0.048849834    0              197.57873      745.93718     -52098.473      50.833253      52.808398      51.870472    
     33500   300.83677      0.0335         5.2536757     -0.083202494    0              391.03068      43.477696     -52536.757      50.815489      52.832093     0.0329         5.1465108     -0.036014486    0.012407342    313.48178      373.32605     -51465.108      50.834433      52.817981      51.845375    
     33000   298.38231      0.033          5.1669223     -0.041274675    0              538.01916      292.50668     -51669.223      50.830967      52.808952      51.850395    
     33100   302.07537      0.0331         5.1404537     -0.0054915923   0.026468665    997.21423      180.13305     -51404.537      50.802968      52.835704      51.855414    
     33200   296.93079      0.0332         5.1641912     -0.023662846    0.0027311099   370.56227      1283.273      -51641.912      50.839248      52.79275       51.860434    
     33300   299.66467      0.0333         5.20936       -0.05798526     0              1032.1888      199.82484     -52093.6        50.804668      52.825559      51.865453    
     33400   301.21411      0.0334         5.2098473     -0.048849834    0              197.57873      745.93718     -52098.473      50.833253      52.808398      51.870472    
     33500   300.83677      0.0335         5.2536757     -0.083202494    0              391.03068      43.477696     -52536.757      50.815489      52.832093      51.875492    
     33600   299.05261      0.0336         5.2855953     -0.10000151     0             -177.47608     -101.84565     -52855.953      50.833395      52.815898      51.880511    
     33700   300.84338      0.0337         5.3063056     -0.1053226      0             -488.37992     -322.68305     -53063.056      50.831529      52.828246      51.885531    
     33800   299.71397      0.0338         5.315283      -0.095468563    0             -443.5284      -409.1921      -53152.83       50.826633      52.834888      51.89055     
     33900   296.46555      0.0339         5.3606469     -0.11941881     0             -478.78055     -265.44103     -53606.469      50.830019      52.822908      51.895569    
     34000   302.32616      0.034          5.3368833     -0.07865912     0.023763591   -403.85423     -499.90771     -53368.833      50.82993       52.824961      51.900589    
     34100   301.35341      0.0341         5.3416299     -0.063288057    0.019017032   -32.175416     -451.3803      -53416.299      50.810068      52.83839       51.905608    
     34200   296.29364      0.0342         5.357122      -0.059487129    0.0035248779  -457.65003      343.73398     -53571.22       50.839131      52.791865      51.910628    
     34300   299.4427       0.0343         5.3605721     -0.04781597     7.4826573e-05  361.79475     -296.69529     -53605.721      50.807386      52.823404      51.915647    
     34400   298.89716      0.0344         5.3673828     -0.038873124    0             -230.3388       572.1873      -53673.828      50.826096      52.796902      51.920666    
     34500   300.99494      0.0345              35200   300.65306      0.0352         5.5082052     -0.080981203    0              352.04365     -775.18218     -55082.052      50.79246       52.826267      51.960821    
     35300   298.40114      0.0353         5.5348557     -0.090203334    0             -286.61014     -252.37219     -55348.557      50.816725      52.79908       51.965841    
     35400   301.80134      0.0354         5.5420972     -0.079973368    0             -756.34708      56.010304     -55420.972      50.826912      52.792336      51.97086     
     35500   302.44953      0.0355         5.5420257     -0.067661417    7.1496753e-05  718.50508     -1523.2201     -55420.257      50.761137      52.857571      51.97588     
     35600   302.14673      0.0356         5.5960898     -0.10319572     0             -1897.5206      803.44983     -55960.898      50.875482      52.737495      51.980899    
     35700   298.32982      0.0357         5.5544937     -0.043757009    0.041596122    1034.5836     -1454.9896     -55544.937      50.750213      52.857969      51.985918    
     35800   301.61515      0.0358         5.5349068     -0.014037153    0.06118309    -566.5          713.76582     -55349.068      50.826501      52.765274      51.990938    
     2052     -0.080981203    0              352.04365     -775.18218     -55082.052      50.79246       52.826267      51.960821    
     35300   298.40114      0.0353         5.5348557     -0.090203334    0             -286.61014     -252.37219     -55348.557      50.816725      52.79908       51.965841    
     35400   301.80134      0.0354         5.5420972     -0.079973368    0             -756.34708      56.010304     -55420.972      50.826912      52.792336      51.97086     
     35500   302.44953      0.0355         5.5420257     -0.067661417    7.1496753e-05  718.50508     -1523.2201     -55420.257      50.761137      52.857571      51.97588     
     35600   302.14673      0.0356         5.5960898     -0.10319572     0             -1897.5206      803.44983     -55960.898      50.875482      52.737495      51.980899    
     35700   298.32982      0.0357         5.5544937     -0.043757009    0.041596122    1034.5836     -1454.9896     -55544.937      50.750213      52.857969      51.985918    
     35800   301.61515      0.0358         5.5349068     -0.014037153    0.06118309    -566.5          713.76582     -55349.068      50.826501      52.765274      51.990938    
     35900   299.44786      0.0359         5.6032646     -0.068511186    0              111.92146      109.78796     -56032.646      50.798834      52.787666      51.995957    
     36000   299.48242      0.036          5.5617754     -0.017854481    0.041489242    599.70839     -111.85495     -55617.754      50.773157      52.802389      52.000977    
     36100   299.82423      0.0361         5.6115267     -0.052602593    0             -324.69781      1129.1609     -56115.267      50.820507      52.759152      52.005996    
     36200   297.69923      0.0362         5.6242201     -0.053694571    0              901.29649     -273.51498     -56242.201      50.76585       52.808138      52.011015    
     36300   303.85493      0.0363         5.6542101     -0.071749127    0             -401.64446      807.07699     -56542.101      50.819876      52.756951      52.016035    
     36400   304.16091      0.0364         5.6407411     -0.048415715    0.013469017    583.51295     -540.90122     -56407.411      50.7707        52.816806      52.021054    
     36500   298.88999      0.0365         5.6861925     -0.079450461    0             -259.33746     -24.099714     -56861.925      50.806551      52.778601      52.026074    
     36600   299.7515       0.0366         5.7170847     -0.09824313     0             -486.61014     -73.976533     -57170.847      50.803522      52.783364      52.031093    
     36700   300.05157      0.0367         5.7369756     -0.099885881    0              175.41735     -969.24519     -57369.756      50.775157      52.825555      52.036112    
     36800   300.82277      0.0368              37500   299.72985      0.0375         5.7659959     -0.0061236783   0.02391321     122.97827      1425.956      -57659.959      50.794438      52.729725      52.076268    
     37600   296.01318      0.0376         5.777501      -0.011587138    0.012408125    1233.8805      234.71245     -57775.01       50.747259      52.777488      52.081287    
     37700   300.85319      0.0377         5.8293298     -0.054180524    0              148.38056      649.08283     -58293.298      50.781586      52.755838      52.086306    
     37800   297.97049      0.0378         5.8486388     -0.064395016    0             -108.8521       219.66903     -58486.388      50.781237      52.763617      52.091326    
     37900   301.50749      0.0379         5.8744254     -0.077136134    0              55.960884     -722.51057     -58744.254      50.761871      52.788484      52.096345    
     38000   301.85604      0.038          5.9277616     -0.11351708     0             -1378.2834     -102.37792     -59277.616      50.817751      52.752378      52.101365    
[...]
     87000   298.97711      0.087          10.661091      0.012307304    0.076134948    649.88688      1529.6059     -106610.91      50.300461      52.215123      54.56087     
     87100   299.83668      0.0871         10.679966     -0.0055510886   0.057260218    1171.6282      245.40662     -106799.66      50.262301      52.271403      54.56589     
     87200   297.7605       0.0872         10.759803     -0.073571636    0             -26.186498      51.645236     -107598.03      50.284094      52.262021      54.570909    
     87300   298.92572      0.0873         10.72056      -0.026702385    0.039243378   -1080.7986     -533.7211      -107205.6       50.318892      52.258268      54.575929    
     87400   299.39529      0.0874         10.762598     -0.061310092    0             -1107.5713     -1946.6353     -107625.98      50.310018      52.295539      54.580948    
     87500   300.75069      0.0875         10.796072     -0.083660154    0             -2030.8126     -1234.4245     -107960.72      50.324396      52.280998      54.585967    
     87600   296.91863      0.0876         10.752336     -0.029482012    0.043735959   -533.511       -1557.3745     -107523.36      50.272704      52.305628      54.590987    
     87700   298.62289      0.0877              88400   299.77978      0.0884         10.773367     -0.043359726    0.022705151   -811.75197      425.58044     -107733.67      50.31072       52.220852      54.631142    
     88500   299.26096      0.0885         10.776443     -0.048398615    0.01962918    -166.09761     -879.51421     -107764.43      50.26643       52.280033      54.636161    
     88600   301.10422      0.0886         10.757842     -0.029246923    0.038230306   -936.94828     -556.69207     -107578.42      50.300897      52.255828      54.641181    
     88700   297.84812      0.0887         10.814832     -0.076665904    0             -1045.6062     -843.55974     -108148.32      50.293873      52.268071      54.6462      
     88800   297.41517      0.0888         10.798993     -0.048807734    0.015839601   -600.21811     -1101.0364     -107989.93      50.283924      52.271519      54.65122     
     88900   301.28818      0.0889         10.797418     -0.037991886    0.017414603   -799.57898     -22.273682     -107974.18      50.304687      52.23549       54.656239    
     89000   296.7614       0.089          10.799795     -0.030295488    0.015036976    746.31219     -52.892299     -107997.95      50.236645      52.274229      54.661258    
     89100   296.57962      0.0891         10.76475197      425.58044     -107733.67      50.31072       52.220852      54.631142    
     88500   299.26096      0.0885         10.776443     -0.048398615    0.01962918    -166.09761     -879.51421     -107764.43      50.26643       52.280033      54.636161    
     88600   301.10422      0.0886         10.757842     -0.029246923    0.038230306   -936.94828     -556.69207     -107578.42      50.300897      52.255828      54.641181    
     88700   297.84812      0.0887         10.814832     -0.076665904    0             -1045.6062     -843.55974     -108148.32      50.293873      52.268071      54.6462      
     88800   297.41517      0.0888         10.798993     -0.048807734    0.015839601   -600.21811     -1101.0364     -107989.93      50.283924      52.271519      54.65122     
     88900   301.28818      0.0889         10.797418     -0.037991886    0.017414603   -799.57898     -22.273682     -107974.18      50.304687      52.23549       54.656239    
     89000   296.7614       0.089          10.799795     -0.030295488    0.015036976    746.31219     -52.892299     -107997.95      50.236645      52.274229      54.661258    
     89100   296.57962      0.0891         10.764006      0.010240538    0.050826432    446.23589      1352.2609     -107640.06      50.281107      52.200423      54.666278    
     89200   299.9178       0.0892         10.767455      0.012988111    0.047376919    1085.34        926.32573     -107674.55      50.24801       52.23258       54.671297    
     89300   299.98239      0.0893         10.840208     -0.051172512    0              505.49027      1048.0534     -108402.08      50.255581      52.231054      54.676317    
     89400   294.84463      0.0894         10.854048     -0.056944358    0              501.64692      571.60419     -108540.48      50.262692      52.227515      54.681336    
     89500   299.40057      0.0895         10.834175     -0.031298064    0.019873064    27.391421      195.16985     -108341.75      50.27116       52.234357      54.686355    
     89600   299.14981      0.0896         10.859164     -0.046154735    0             -361.13494     -188.37782     -108591.64      50.276099      52.248164      54.691375    
     89700   298.12661      0.0897         10.899029     -0.077599914    0             -460.52727     -1040.7076     -108990.29      50.258532      52.273748      54.696394    
     89800   298.42061      0.0898         10.882736     -0.052932771    0.016292768   -1589.3017     -807.50173     -108827.36      50.310707      52.238033      54.701414    
     89900   302.04723      0.0899         10.887726     -0.048891151    0.011303596   -988.06615     -2072.6662     -108877.26      50.262504      52.300188      54.706433    
     90000   297.70545      0.09                90700   296.53288      0.0907         10.876786     -0.0066657154   0.041590763   -368.84417     -125.09734     -108767.86      50.268485      52.228442      54.746588    
     90800   300.16249      0.0908         10.891728     -0.020708538    0.026648815   -755.06577     -1021.8456     -108917.28      50.268601      52.253193      54.751608    
     90900   299.03865      0.0909         10.954788     -0.077063008    0             -1481.7434     -1280.4971     -109547.88      50.288549      52.246235      54.756627    
     91000   300.12335      0.091          10.998643     -0.11289071     0             -1436.0839     -1265.7266     -109986.43      50.288998      52.248759      54.761646    
     91100   298.83275      0.0911         10.937949     -0.046772429    0.060693912   -779.96557     -870.34376     -109379.49      50.262912      52.251278      54.766666    
     91200   302.06966      0.0912         10.964758     -0.06487092     0.033884191   -107.96124     -419.17995     -109647.58      50.255159      52.246155      54.771685    
     91300   298.2058       0.0913         10.92723      -0.019848702    0.071412467    248.50853      1055.8061     -109272.3       50.273455      52.179751      54.776705    
     91400   301.23293      0.0914         10.848505      0.058175962    0-108767.86      50.268485      52.228442      54.746588    
     90800   300.16249      0.0908         10.891728     -0.020708538    0.026648815   -755.06577     -1021.8456     -108917.28      50.268601      52.253193      54.751608    
     90900   299.03865      0.0909         10.954788     -0.077063008    0             -1481.7434     -1280.4971     -109547.88      50.288549      52.246235      54.756627    
     91000   300.12335      0.091          10.998643     -0.11289071     0             -1436.0839     -1265.7266     -109986.43      50.288998      52.248759      54.761646    
     91100   298.83275      0.0911         10.937949     -0.046772429    0.060693912   -779.96557     -870.34376     -109379.49      50.262912      52.251278      54.766666    
     91200   302.06966      0.0912         10.964758     -0.06487092     0.033884191   -107.96124     -419.17995     -109647.58      50.255159      52.246155      54.771685    
     91300   298.2058       0.0913         10.92723      -0.019848702    0.071412467    248.50853      1055.8061     -109272.3       50.273455      52.179751      54.776705    
     91400   301.23293      0.0914         10.848505      0.058175962    0.15013718     2050.0831      1241.4398     -108485.05      50.201123      52.21448       54.781724    
     91500   301.86915      0.0915         10.864629      0.052254193    0.13401349     1682.192       2052.2127     -108646.29      50.21288       52.197174      54.786743    
     91600   300.16528      0.0916         10.893897      0.021994463    0.10474581     1434.4086      1074.2622     -108938.97      50.219931      52.204394      54.791763    
     91700   300.96723      0.0917         10.96576      -0.040971107    0.032882822    376.91464      430.38908     -109657.6       50.258107      52.19975       54.796782    
     91800   298.68431      0.0918         10.919842      0.0077584445   0.078800961   -392.95329     -195.56694     -109198.42      50.261248      52.229803      54.801801    
     91900   300.70097      0.0919         10.997048     -0.065221836    0.0015947193  -631.81802     -941.72175     -109970.48      50.246344      52.255378      54.806821    
     92000   300.00593      0.092          11.027027     -0.092362205    0             -987.58729     -611.58418     -110270.27      50.272738      52.231697      54.81184     
     92100   303.04553      0.0921         11.006695     -0.065156218    0.020331322   -707.4671      -680.01971     -110066.95      50.267736      52.230714      54.81686     
     92200   305.03774      0.0922         11.002902     -0.057548425    0.024124768   -283.01103     -345.72669     -110029.02      50.248692      52.23293       54.821879    
     92300   297.11183      0.0923              93000   300.46262      0.093          11.130278     -0.12760994     0             -804.29384     -744.32711     -111302.78      50.255643      52.223443      54.862034    
     93100   299.11642      0.0931         11.058417     -0.050577139    0.071860595   -220.74355     -536.36779     -110584.17      50.245346      52.225725      54.867054    
     93200   300.16953      0.0932         11.046597     -0.034387239    0.083680983   -525.9991       487.90264     -110465.97      50.270532      52.182989      54.872073    
     93300   295.25361      0.0933         11.096118     -0.069654065    0.034159938    959.10685      202.84681     -110961.18      50.20316       52.222935      54.877092    
     93400   301.29754      0.0934         11.055658     -0.017925382    0.074620048    468.21192      1056.1765     -110556.58      50.234766      52.17981       54.882112    
     93500   297.98181      0.0935         10.996025      0.046249838    0.13425344     1527.4765      391.73401     -109960.25      50.201078      52.215432      54.887131    
     93600   298.96535      0.0936         11.053862     -0.0034490311   0.076415773   -75.492734      1132.8116     -110538.62      50.261257      52.158989      54.892151    
     93700   299.85986      0.0937         11.057399     -0.0031494483   0.072879348    526.87983        52.223443      54.862034    
     93100   299.11642      0.0931         11.058417     -0.050577139    0.071860595   -220.74355     -536.36779     -110584.17      50.245346      52.225725      54.867054    
     93200   300.16953      0.0932         11.046597     -0.034387239    0.083680983   -525.9991       487.90264     -110465.97      50.270532      52.182989      54.872073    
     93300   295.25361      0.0933         11.096118     -0.069654065    0.034159938    959.10685      202.84681     -110961.18      50.20316       52.222935      54.877092    
     93400   301.29754      0.0934         11.055658     -0.017925382    0.074620048    468.21192      1056.1765     -110556.58      50.234766      52.17981       54.882112    
     93500   297.98181      0.0935         10.996025      0.046249838    0.13425344     1527.4765      391.73401     -109960.25      50.201078      52.215432      54.887131    
     93600   298.96535      0.0936         11.053862     -0.0034490311   0.076415773   -75.492734      1132.8116     -110538.62      50.261257      52.158989      54.892151    
     93700   299.85986      0.0937         11.057399     -0.0031494483   0.072879348    526.87983     -328.55126     -110573.99      50.217152      52.216902      54.89717     
     93800   299.51277      0.0938         11.060754     -0.0034075545   0.069523985   -387.71783     -46.946297     -110607.54      50.239327      52.213967      54.902189    
     93900   298.28052      0.0939         11.042877      0.016921433    0.087400938   -201.6786      -279.96945     -110428.77      50.234763      52.210584      54.907209    
     94000   293.92926      0.094          11.092607     -0.036575883    0.037670691   -294.66387     -202.9335      -110926.07      50.23772       52.199377      54.912228    
     94100   299.21136      0.0941         11.105962     -0.0451761      0.024316015   -348.55115     -49.036566     -111059.62      50.236274      52.203831      54.917248    
     94200   299.05106      0.0942         11.064429     -0.0018601121   0.065848783    9.1489577     -196.77286     -110644.29      50.232207      52.204857      54.922267    
     94300   296.21624      0.0943         11.055336      0.0031550661   0.074942186    41.761676     -60.219572     -110553.36      50.23328       52.198432      54.927286    
     94400   300.63565      0.0944         11.215072     -0.14063949     0             -179.65439     -80.342166     -112150.72      50.233494      52.204202      54.932306    
     94500   301.14743      0.0945         11.097592     -0.013003093    0.11747964     305.61764      30.686729     -110975.92      50.223189      52.202439      54.937325    
     94600   300.12299      0.0946              95300   297.6583       0.0953         11.201998     -0.073641792    0.013074184   -788.89287     -928.82685     -112019.98      50.229824      52.213745      54.97748     
     95400   298.50739      0.0954         11.145743     -0.024319713    0.069329181   -272.25195     -367.11619     -111457.43      50.230677      52.199208      54.9825      
     95500   298.6421       0.0955         11.113074      0.0098967833   0.10199746     369.12445      235.02018     -111130.74      50.209607      52.190249      54.987519    
     95600   301.54026      0.0956         11.185961     -0.048763051    0.029110751    278.00941      1029.8569     -111859.61      50.219167      52.16445       54.992539    
     95700   301.5383       0.0957         11.189796     -0.043203724    0.025275749    1493.9583      334.5243      -111897.96      50.176381      52.199629      54.997558    
     95800   299.21869      0.0958         11.158361     -0.0024064769   0.056710761    197.9335       1632.2759     -111583.61      50.24021       52.133876      55.002577    
     95900   301.38685      0.0959         11.222934     -0.052906059    0              1146.0935     -163.01377     -112229.34      50.179157      52.210729      55.007597    
     96000   297.90864      0.096          11.167194      0.0039713535   0.055740059   -293.78426      450.21357     -1116717748     
     95400   298.50739      0.0954         11.145743     -0.024319713    0.069329181   -272.25195     -367.11619     -111457.43      50.230677      52.199208      54.9825      
     95500   298.6421       0.0955         11.113074      0.0098967833   0.10199746     369.12445      235.02018     -111130.74      50.209607      52.190249      54.987519    
     95600   301.54026      0.0956         11.185961     -0.048763051    0.029110751    278.00941      1029.8569     -111859.61      50.219167      52.16445       54.992539    
     95700   301.5383       0.0957         11.189796     -0.043203724    0.025275749    1493.9583      334.5243      -111897.96      50.176381      52.199629      54.997558    
     95800   299.21869      0.0958         11.158361     -0.0024064769   0.056710761    197.9335       1632.2759     -111583.61      50.24021       52.133876      55.002577    
     95900   301.38685      0.0959         11.222934     -0.052906059    0              1146.0935     -163.01377     -112229.34      50.179157      52.210729      55.007597    
     96000   297.90864      0.096          11.167194      0.0039713535   0.055740059   -293.78426      450.21357     -111671.94      50.232652      52.161402      55.012616    
     96100   300.10775      0.0961         11.22678      -0.052242007    0             -449.79742     -516.10951     -112267.8       50.220745      52.201124      55.017636    
     96200   300.49584      0.0962         11.229055     -0.044965835    0             -801.06467     -1086.8404     -112290.55      50.233736      52.201854      55.022655    
     96300   295.98628      0.0963         11.234163     -0.046856708    0             -1333.6443     -618.27213     -112341.63      50.244086      52.18749       55.027674    
     96400   300.88084      0.0964         11.241451     -0.044574319    0             -704.37717     -1308.3759     -112414.51      50.21308       52.220471      55.032694    
     96500   300.16252      0.0965         11.21865      -0.011215408    0.022801347   -685.02592     -362.89386     -112186.5       50.22944       52.187408      55.037713    
     96600   297.97165      0.0966         11.211126     -0.0011747889   0.030325487    31.39291       110.8194      -112111.26      50.201276      52.178027      55.042733    
     96700   305.00145      0.0967         11.124335      0.079069874    0.11711625     298.18006      678.19483     -111243.35      50.196082      52.15322       55.047752    
     96800   300.68503      0.0968         10.995932      0.19123038     0.24551969     1023.7641      568.21772     -Loop time of 239.216 on 4 procs for 97400 steps with 11520 atoms

Performance: 70.358 ns/day, 0.341 hours/ns, 407.163 timesteps/s, 4.691 Matom-step/s
91.7% CPU use with 4 MPI tasks x 1 OpenMP threads

MPI task timing breakdown:
Section |  min time  |  avg time  |  max time  |%varavg| %total
---------------------------------------------------------------
Pair    | 124.03     | 136.65     | 149.35     |  97.9 | 57.12
Neigh   | 0.035894   | 0.036028   | 0.036166   |   0.1 |  0.02
Comm    | 31.519     | 31.804     | 32.044     |   4.2 | 13.29
Output  | 12.123     | 12.177     | 12.231     |   1.2 |  5.09
Modify  | 38.881     | 51.662     | 63.625     | 160.5 | 21.60
Other   |            | 6.89       |            |       |  2.88

Nlocal:           2880 ave        2970 max        2835 min
Histogram: 2 0 0 1 0 0 0 0 0 1
Nghost:        10933.5 ave       11032 max       10830 min
Histogram: 1 0 1 0 0 0 0 1 0 1
Neighs:              0 ave           0 max           0 min
Histogram: 4 0 0 0 0 0 0 0 0 0
FullNghs:  1.28141e+06 ave 1.30477e+06 max 1.26751e+06 min
Histogram: 2 0 0 1 0 0 0 0 0 1

Total # of neighbors = 5125628
Ave neighs/atom = 444.93299
Neighbor list builds = 239
Dangerous builds = 0


---------------------------------------------------------------------
      Device Time Info (average): 
---------------------------------------------------------------------
CPU Neighbor:    0.0285 s.
CPU Cast/Pack:   3.8688 s.
CPU Driver_Time: 1.1651 s.
CPU Idle_Time:   58.3488 s.
Average split:   1.0000.
Max Mem / Proc:  10.11 MB.
Prefetch mode:   None.
Vector width:    32.
Lanes / atom:    4.
Pair block:      256.
Neigh block:     128.
Neigh mode:      Hybrid (binning on host) with subgroup support.
Neigh sorting:   Unavailable or disabled.
---------------------------------------------------------------------

Total wall time: 0:04:05
 160.5 | 21.60
Other   |            | 6.89       |            |       |  2.88

Nlocal:           2880 ave        2970 max        2835 min
Histogram: 2 0 0 1 0 0 0 0 0 1
Nghost:        10933.5 ave       11032 max       10830 min
Histogram: 1 0 1 0 0 0 0 1 0 1
Neighs:              0 ave           0 max           0 min
Histogram: 4 0 0 0 0 0 0 0 0 0
FullNghs:  1.28141e+06 ave 1.30477e+06 max 1.26751e+06 min
Histogram: 2 0 0 1 0 0 0 0 0 1

Total # of neighbors = 5125628
Ave neighs/atom = 444.93299
Neighbor list builds = 239
Dangerous builds = 0
Total wall time: 0:04:05
