LAMMPS (10 Dec 2025)
OMP_NUM_THREADS environment is not set. Defaulting to 1 thread.
  using 1 OpenMP thread(s) per MPI task
Reading data file ...
  orthogonal box = (0 0 0) to (52.057201 50.092065 49.588615)
  1 by 1 by 1 MPI processor grid
  reading atoms ...
  7560 atoms
  read_data CPU = 0.024 seconds
Changing box ...
  triclinic box = (0 0 0) to (52.057201 50.092065 49.588615) with tilt (0 0 0)
Reading eam potential file /mnt/c/Users/iwash/Documents/Repositories/Simulation/potentials/Ag_u3.eam with DATE: 2007-06-11
=== Phase 1: 0K Relaxation ===
Switching to 'neigh_modify every 1 delay 0 check yes' setting during minimization
Neighbor list info ...
  update: every = 1 steps, delay = 0 steps, check = yes
  max neighbors/atom: 2000, page size: 100000
  master list distance cutoff = 7.55
  ghost atom cutoff = 7.55
  binsize = 3.775, bins = 14 14 14
  1 neighbor lists, perpetual/occasional/extra = 1 0 0
  (1) pair eam, perpetual
      attributes: half, newton on
      pair build: half/bin/atomonly/newton/tri
      stencil: half/bin/3d/tri
      bin: standard
Setting up cg style minimization ...
  Unit style    : metal
  Current step  : 0
WARNING: Energy due to 3 extra global DOFs will be included in minimizer energies
 (src/min.cpp:222)
Per MPI rank memory allocation (min/avg/max) = 9.707 | 9.707 | 9.707 Mbytes
   Step          Temp          PotEng         Press           Pxx            Pyy            Pzz             Lx             Ly             Lz      
         0   0             -21546         -0.058146225   -0.058146225   -0.058146225   -0.058146225    52.057201      50.092065      49.588615    
         1   0             -21546         -0.00033946199 -0.00033946209 -0.00033946202 -0.00033946185  52.0572        50.092064      49.588614    
Loop time of 0.0166518 on 1 procs for 1 steps with 7560 atoms

111.1% CPU use with 1 MPI tasks x 1 OpenMP threads

Minimization stats:
  Stopping criterion = energy tolerance
  Energy initial, next-to-last, final = 
     -21546.0000119407  -21546.0000119407  -21546.0000119309
  Force two-norm initial, final = 0.0081283711 4.7454033e-05
  Force max component initial, final = 0.0046929172 2.7397607e-05
  Final line search alpha, max atom move = 0.21308707 5.8380759e-06
  Iterations, force evaluations = 1 2

MPI task timing breakdown:
Section |  min time  |  avg time  |  max time  |%varavg| %total
---------------------------------------------------------------
Pair    | 0.016079   | 0.016079   | 0.016079   |   0.0 | 96.56
Neigh   | 0          | 0          | 0          |   0.0 |  0.00
Comm    | 6.7571e-05 | 6.7571e-05 | 6.7571e-05 |   0.0 |  0.41
Output  | 0          | 0          | 0          |   0.0 |  0.00
Modify  | 0          | 0          | 0          |   0.0 |  0.00
Other   |            | 0.0005051  |            |       |  3.03

Nlocal:           7560 ave        7560 max        7560 min
Histogram: 1 0 0 0 0 0 0 0 0 0
Nghost:           9788 ave        9788 max        9788 min
Histogram: 1 0 0 0 0 0 0 0 0 0
Neighs:         325080 ave      325080 max      325080 min
Histogram: 1 0 0 0 0 0 0 0 0 0

Total # of neighbors = 325080
Ave neighs/atom = 43
Neighbor list builds = 0
Dangerous builds = 0
=== Phase 2: Equilibration at 300.0K ===
Setting up Verlet run ...
  Unit style    : metal
  Current step  : 0
  Time step     : 0.002
Per MPI rank memory allocation (min/avg/max) = 7.473 | 7.473 | 7.473 Mbytes
   Step          Temp          PotEng         Press           Pxx            Pyy            Pzz             Lx             Ly             Lz      
         0   300  unfix relax

print '=== Phase 2: Equilibration at 300.0K ==='
=== Phase 2: Equilibration at 300.0K ===
reset_timestep 0
velocity all create 300.0 39921 dist gaussian
fix eq all npt temp 300.0 300.0 0.1 tri 0.0 0.0 1.0
run 2500
Per MPI rank memory allocation (min/avg/max) = 7.473 | 7.473 | 7.473 Mbytes
   Step          Temp          PotEng         Press           Pxx            Pyy            Pzz             Lx             Ly             Lz      
         0   300           -21546          2421.2385      2469.1492      2402.7504      2391.816          49.832185    
       400   280.26779     -21244.206      74.483982      259.03698     -73.064224      37.479192      52.358431      50.389868      49.869258    
       500   306.03888     -21225.331     -485.06899     -498.21101     -551.17777     -405.8182       52.382941      50.421216      49.898577    
       600   304.26319     -21241.748     -784.42137     -1169.4874     -366.14218     -817.63457      52.393305      50.381985      49.902071    
       700   291.15461     -21250.309     -319.75479      18.716303     -650.40636     -327.5743       52.339577      50.407053      49.877033    
       800   303.11647     -21238.775     -92.22232      -63.431917      142.74212     -355.97716      52.3699        50.376353      49.900166    
       900   302.92996     -21234.861      230.14232     -27.044852      263.93161      453.5402       52.381686      50.384669      49.873544    
      1000   296.73729     -21245.385      570.2601       783.24783      472.55073      454.98175      52.330145      50.387856      49.875647    
      1100   297.98663     -21242.472      755.71158      425.81728      1231.6381      609.6794       52.362546      50.35225       49.878096    
      1200   301.18487     -21235.333      842.3443       955.93196      519.61331      1051.4876      52.353798      50.390279      49.862287    
      1300   303.14399     -21242.973      419.40073      585.9513       632.43598      39.814904      52.347219      50.377708      49.883013    
      1400   295.87048     -21246.214     -170.11529     -657.31746      242.42376     -95.452158      52.387272      50.363365      49.879044    
      1500   301.00613     -21237.51      -421.11388     -129.46912     -1174.1359      40.263352      52.365153      50.435207      49.865331    
      1600   303.91088     -21238.784     -714.89321     -1063.7809      156.70081     -1237.5996      52.403798      50.356225      49.919145    
      1700   296.46934     -21246.008     -280.86055     -521.49388     -88.92128      -232.1665       52.358658      50.395524      49.880593    
      1800   301.10837     -21245.088     -381.1227      -340.47847     -828.15464      25.265007      52.354028      50.413649      49.877122    
      1900   306.74603     -21237.815      92.790295     -271.05127      490.16626      59.255894      52.402561      50.358364      49.883553    
      2000   298.18858     -21243.993      154.43252      251.67278      202.03448      9.5902967      52.356737      50.387873      49.87463     
      2100   300.07523     -21244.545      66.560457      251.82191     -206.53558      154.39505      52.342865      50.404771      49.87515     
      2200   300.69424     -21238.264      88.31797      -474.13109      776.74953     -37.664527      52.404832      50.339289      49.896707    
      2300   300.80258     -21241.541     -200.09278     -54.153905     -446.88871     -99.235713      52.377242      50.398801      49.869721    
      2400   298.70999     -21244.195     -531.59202     -288.86298     -632.02104     -673.89204      52.348731      50.410474      49.893678    
      2500   301.43413     -21239.69      -88.410634     -75.053986      77.734782     -267.9127       52.364532      50.378136      49.900323    
Loop time of 14.1013 on 1 procs for 2500 steps with 7560 atoms

Performance: 30.636 ns/day, 0.783 hours/ns, 177.289 timesteps/s, 1.340 Matom-step/s
110.8% CPU use with 1 MPI tasks x 1 OpenMP threads

MPI task timing breakdown:
Section |  min time  |  avg time  |  max time  |%varavg| %total
-50.410474      49.893678    
      2500   301.43413     -21239.69      -88.410634     -75.053986      77.734782     -267.9127       52.364532      50.378136      49.900323    
Loop time of 14.1013 on 1 procs for 2500 steps with 7560 atoms

Performance: 30.636 ns/day, 0.783 hours/ns, 177.289 timesteps/s, 1.340 Matom-step/s
110.8% CPU use with 1 MPI tasks x 1 OpenMP threads

MPI task timing breakdown:
Section |  min time  |  avg time  |  max time  |%varavg| %total
---------------------------------------------------------------
Pair    | 13.457     |2 ave        9502 max        9502 min
Histogram: 1 0 0 0 0 0 0 0 0 0
Neighs:         345525 ave      345525 max      345525 min
Histogram: 1 0 0 0 0 0 0 0 0 0

Total # of neighbors = 345525
Ave neighs/atom = 45.704365
Neighbor list builds = 9
Dangerous builds = 0
=== Phase 3: Tension ===
Neighbor list info ...
  update: every = 1 steps, delay = 10 steps, check = yes
  max neighbors/atom: 2000, page size: 100000
  master list distance cutoff = 7.55
  ghost atom cutoff = 7.55
  binsize = 3.775, bins = 14 14 14
  3 neighbor lists, perpetual/occasional/extra = 1 2 0
  (1) pair eam, perpetual
      attributes: half, newton on
      pair build: half/bin/atomonly/newton/tri
      stencil: half/bin/3d/tri
      bin: standard
  (2) compute cna/atom, occasional
      attributes: full, newton on
      pair build: full/bin/atomonly
      stencil: full/bin/3d
      bin: standard
  (3) compute centro/atom, occasional
      attributes: full, newton on
      pair build: full/bin/atomonly
      stencil: full/bin/3d
      bin: standard
Setting up Verlet run ...
  Unit style    : metal
  Current step  : 0
  Time step     : 0.002
Per MPI rank memory allocation (min/avg/max) = 10.98 | 10.98 | 10.98 Mbytes
   Step          Temp         v_strain       v_stress    v_stress_drop  v_drop_from_peak      Pxx            Pyy            Pzz             Lx             Ly             Lz      
         0   301.43413      8.5435447e-16  0.02679127    -3.8163916e-17  0             -75.053986      77.734782     -267.9127       52.364532      50.378136      49.900323    
       100   295.52456      0.0001         0.060826268   -0.017017499    0              263.22754     -6.2607379     -608.26268      52.352066      50.380169      49.905313    
       200   300.56007      0.0002         0.069671536   -0.017241844    0             -221.08452      332.83665     -696.71536      52.371884      50.360647      49.910303    
       300   301.33355      0.0003         0.029558613    0.017153309    0.040112922    177.02464      317.35885     -295.58613      52.35124       50.375683      49.915293    
       400   297.91536      0.0004         0.11871055    -0.057598903    0              440.1731      -231.79996     -1187.1055      52.319128      50.407296      49.920283    
       500   300.93009      0.0005         0.14676615    -0.071378753    0             -848.70088      232.66233     -1467.6615      52.400545      50.346096      49.925273    
       600   302.20154      0.0006         0.12113849    -0.039215219    0.025627665    272.94519     -837.4016      -1211.3849      52.344206      50.403708      49.930264    
       700   300.60026      0.0007         0.14128828    -0.051944385    0.0054778716  -535.36955     -200.60924     -1412.8828      52.357493      50.370824      49.935254    
       800   293.93513      0.0008         0.16386472    -0.066240732    0             -275.29612     -69.459134     -1638.6472      52.364525      50.364269      49.940244    
       900   300.61576      0.0009         0.18742412    -0.080820122    0              0.692318      -1053.7605     -1874.2412      52.338763      50.407481      49.945234    
      1000   297.71562      0.001          0.18278655    -0.060583026    0.0046375671  -647.79304      226.49801     -1827.8655      52.369812      50.356089      49.950224    
      1100   294.7371       0.0011         0.17781721    -0.043914587    0.0096069119  -94.542407     -466.39118     -1778.1721      52.322482      50.384209      49.955214    
      1200   299.46354      0.0012         0.24069002    -0.089685553    0             -72.968822     -104.65025     -2406.9002      52.352375      50.371404      49.960204    
      1300   297.10791      0.0013         0.21500549    -0.045456331    0.025684534   -370.84607      290.29284     -2150.0549      52.35917       50.358251      49.965194    
      1400   297.51228      0.0014         0.25890614    -0.075337422    0              301.48612     -474.56563     -2589.0614      52.317851      50.383531      49.970184    
      1500   296.92735      0.0015         0.22895474    -0.037167168    0.029951395    465.29563      138.83043     -2289.5474      52.317765      50.363963      49.975174    
      1600   306.29884      0.0016         0.25319685    -0.048203441    0.005709285   -264.74334      366.41597     -2531.9685      52.36566       50.326301      49.980164    
      1700   299.07508      0.0017         0.22282367    -0.0096767185   0.036082468    1181.7901      236.63036     -2228.2367      52.292433      50.373209      49.985154    
      1800   297.06271      0.0018         0.23830355    -0.017712715    0.020602589    519.64786      1435.872      -2383.0355      52.315295      50.323096      49.990144    
      1900   302.10452      0.0019         0.23833599    -0.012653965    0.020570152    1135.1996      754.62129     -2383.3599      52.311789      50.339322      49.995134    
      2000   300.34373      0.002          0.23053362    -7.689283e-05   0.028372517    1123.197       778.18671     -2305.3362      52.316611      50.329862      50.000124    
      2100   300.56303      0.0021         0.29129238    -0.049488137    0              243.62211      970.78268     -2912.9238      52.309892      50.335372      50.005114    
      2200   299.41092      0.0022         0.28050393    -0.034718288    0.010788459    1458.2215      397.11411     -2805.0393      52.267885      50.374293      50.010104    
      2300   301.61993      0.0023         0.27712645    -0.025128719    0.014165932    986.76115      1241.3978     -2771.2645      52.333312      50.308916      50.015094    
      2400   298.74728      0.0024         0.299916      -0.043817281    0              746.38159      1135.335      -2999.16        52.298186      50.337618      50.020084    
      2500   300.6658       0.0025         0.33223995    -0.065812708    0              1552.312       263.631       -3322.3995      52.252617      50.386592      50.025074    
      2600   303.43472      0.0026         0.35063624    -0.07446506     0              196.22636      673.23811     -3506.3624      52.323871      50.319918      50.030064    
      2700   301.20541      0.0027         0.37423038    -0.082918533    0              409.68165      449.87638     -3742.3038      52.307071      50.330197      50.035054    
      2800   303.14314      0.0028         0.36964026    -0.065194738    0.0045901245   730.28752      106.82688     -3696.4026      52.282004      50.368785      50.040044    
      2900   299.93921      0.0029         0.38939717    -0.069845532    0              6.3074961      501.29187     -3893.9717      52.317667      50.338917      50.045034    
      3000   296.13099      0.003          0.41512454    -0.077113814    0              96.394236     -7.7506874     -4151.2454      52.324843      50.333985      50.050024    
      3100   296.51762      0.0031         0.44999914    -0.096117738    0             -249.811        74.265992     -4499.9914      52.318482      50.349608      50.055014    
      3200   300.68544      0.0032         0.47589316    -0.10247283     0             -647.4969      -182.18704     -4758.9316      52.316732      50.362752      50.060004    
      3300   299.09665      0.0033         0.49230355    -0.097365508    0             -171.76407     -644.45015     -4923.0355      52.31367       50.362281      50.064994    
      3400   295.0795       0.0034         0.50620351    -0.090636717    0             -680.17922     -51.314805     -5062.0351      52.342365      50.328789      50.069984    
      3500   296.10699      0.0035         0.49655251    -0.064554464    0.0096509966  -357.77031     -430.29783     -4965.5251      52.308854      50.363245      50.074974    
      3600   302.2504       0.0036         0.5168078     -0.0681926      0             -345.01885     -1137.9875     -5168.078       52.294367      50.383556      50.079964    
      3700   299.88481      0.0037         0.53355056    -0.069003336    0             -857.55319     -129.85353     -5335.5056      52.333779      50.317765      50.084955    
      3800   297.72746      0.0038         0.56239909    -0.07857599     0             -447.56452     -370.07804     -5623.9909      52.31573       50.338565      50.089945    
      3900   300.56783      0.0039         0.57825197    -0.07554339     0              164.88665     -825.42154     -5782.5197      52.277847      50.381792      50.094935    
      4000   296.40104      0.004          0.57835688    -0.059325064    0             -798.11676      577.1807      -5783.5688      52.343792      50.306667      50.099925    
      4100   295.20421      0.0041         0.55288839    -0.023567649    0.02546849     536.95395     -611.94158     -5528.8839      52.265525      50.35866       50.104915    
      4200   297.49295      0.0042         0.5593857     -0.0217157      0.018971186   -145.82696      460.9746      -5593.857       52.298882      50.327054      50.109905    
      4300   299.27848      0.0043         0.5998374     -0.051414017    0             -353.53909      550.94557     -5998.374       52.306255      50.324615      50.114895    
      4400   301.01316      0.0044         0.63042216    -0.069576913    0              381.8807      -1417.868      -6304.2216      52.252983      50.381511      50.119885    
      4500   299.2487       0.0045         0.63819418    -0.06318477     0             -974.11528      139.85462     -6381.9418      52.330821      50.300949      50.124875    
      4600   297.68019      0.0046         0.62975419    -0.043450137    0.0084399942  -186.13385      13.933128     -6297.5419      52.288203      50.349622      50.129865    
      4700   298.08153      0.0047         0.62069417    -0.025675754    0.017500016    468.68917      31.984576     -6206.9417      52.260227      50.34503       50.134855    
      4800   299.09054      0.0048         0.64548979    -0.042162309    0             -253.98428      727.42878     -6454.8979      52.312274      50.293226      50.139845    
      4900   303.51868      0.0049         0.62132316    -0.013688556    0.024166636    586.82068     -9.3793668     -6213.2316      52.258133      50.340089      50.144835    
      5000   299.61476      0.005          0.67684195    -0.059358845    0              68.81813       528.51186     -6768.4195      52.281259      50.304857      50.149825    
      5100   298.37224      0.0051         0.6761078     -0.046302753    0.00073415059  865.70429      525.9692      -6761.078       52.255422      50.32594       50.154815    
      5200   302.0829       0.0052         0.65912325    -0.019344449    0.017718699    712.46128      309.5316      -6591.2325      52.273425      50.306203      50.159805    
      5300   300.73954      0.0053         0.68786651    -0.039284793    0              350.24766      947.30999     -6878.6651      52.292925      50.278322      50.164795    
      5400   292.26698      0.0054         0.70196106    -0.04622545     0              1454.1698      936.84393     -7019.6106      52.219726      50.320216      50.169785    
      5500   300.33415      0.0055         0.66391227    -0.0056048531   0.038048788    1022.9499      1094.7676     -6639.1227      52.248744      50.290883      50.174775    
      5600   305.33418      0.0056         0.69916508    -0.033916576    0.0027959761   858.18268      1062.5319     -6991.6508      52.27092       50.276905      50.179765    
      5700   300.71305      0.0057         0.71289161    -0.038423361    0              1293.3992      336.41402     -7128.9161      52.222239      50.318533      50.184755    
      5800   302.30411      0.0058         0.76959339    -0.082714786    0              7.4915446      826.75867     -7695.9339      52.277642      50.280375      50.189745    
      5900   302.17227      0.0059         0.74918463    -0.04951987     0.020408769    692.14374      432.89314     -7491.8463      52.251123      50.31021       50.194735    
      6000   298.62931      0.006          0.77236499    -0.063147928    0              727.04489      349.73042     -7723.6499      52.243743      50.317277      50.199725    
      6100   299.8708       0.0061         0.80804356    -0.085632924    0              19.73541       596.81076     -8080.4356      52.27192       50.274125      50.204715    
      6200   301.7541       0.0062         0.78533551    -0.050303648    0.02270805     663.27444      185.31493     -7853.3551      52.239169      50.311472      50.209705    
      6300   300.25049      0.0063         0.78299076    -0.038446479    0.025052794    324.36756      475.21018     -7829.9076      52.262854      50.301483      50.214695    
      6400   299.43896      0.0064         0.84533774    -0.086455788    0              204.23524      484.99786     -8453.3774      52.269021      50.281484      50.219685    
      6500   301.33744      0.0065         0.85095296    -0.073366938    0              546.03434     -37.344992     -8509.5296      52.242843      50.306689      50.224675    
      6600   300.84693      0.0066         0.8644752     -0.070358162    0             -15.280279      384.14658     -8644.752       52.267273      50.291003      50.229665    
      6700   305.55822      0.0067         0.84530745    -0.03794883     0.019167749   -328.86594     -151.82048     -8453.0745      52.276862      50.301444      50.234655    
      6800   303.16426      0.0068         0.88488646    -0.065998533    0              528.21241     -456.39461     -8848.8646      52.234037      50.316992      50.239646    
      6900   295.62446      0.0069         0.89720601    -0.063515946    0             -141.6971       628.15908     -8972.0601      52.26931       50.279738      50.244636    
      7000   298.7146       0.007          0.90973259    -0.062305768    0              204.77516     -94.905151     -9097.3259      52.254226      50.313383      50.249626    
      7100   302.89847      0.0071         0.91576221    -0.057563522    0             -314.11027     -99.949307     -9157.6221      52.271962      50.289964      50.254616    
      7200   298.78986      0.0072         0.93973771    -0.0660988      0             -244.73695      295.55774     -9397.3771      52.261344      50.285357      50.259606    
      7300   295.25356      0.0073         0.9456237     -0.055721494    0              408.49397      65.166683     -9456.237       52.230317      50.30153       50.264596    
      7400   298.99857      0.0074         0.90893341    -0.01267164     0.036690287    411.98889      673.42941     -9089.3341      52.251         50.266207      50.269586    
      7500   303.09865      0.0075         0.94948442    -0.043369504    0              122.45899      281.97797     -9494.8442      52.258391      50.272984      50.274576    
      7600   298.82974      0.0076         0.98770202    -0.069264424    0              197.23763     -25.652013     -9877.0202      52.221686      50.302285      50.279566    
      7700   299.14838      0.0077         0.99933267    -0.065492555    0             -162.30371      526.60738     -9993.3267      52.276168      50.250726      50.284556    
      7800   302.89663      0.0078         0.97926085    -0.035983291    0.020071826    501.97243     -199.90603     -9792.6085      52.234028      50.297297      50.289546    
      7900   301.94072      0.0079         1.0077929     -0.053456673    0             -218.53154      258.27919     -10077.929      52.245164      50.296605      50.294536    
      8000   297.73037      0.008          1.046174      -0.07819359     0             -9.7057428     -282.19858     -10461.74       52.253094      50.284835      50.299526    
      8100   299.48213      0.0081         1.0366885     -0.056615499    0.0094854604   212.34418     -315.67225     -10366.885      52.244141      50.283376      50.304516    
      8200   296.28082      0.0082         1.1054967     -0.10884778     0             -666.04721     -156.78242     -11054.967      52.270168      50.278621      50.309506    
      8300   297.54334      0.0083         1.1373829     -0.12155808     0             -410.89577     -892.11694     -11373.829      52.226412      50.317933      50.314496    
      8400   301.027        0.0084         1.0797821     -0.046872367    0.057600848   -528.07355     -310.21325     -10797.821      52.285674      50.254159      50.319486    
      8500   300.61758      0.0085         1.1369465     -0.085290541    0.00043647106 -664.22731     -709.19944     -11369.465      52.269758      50.272627      50.324476    
      8600   295.855        0.0086         1.1882141     -0.11650702     0             -528.59551     -759.79753     -11882.141      52.223755      50.302934      50.329466    
      8700   301.78532      0.0087         1.1596554     -0.071915995    0.028558755   -829.14298     -774.2386      -11596.554      52.241553      50.289302      50.334456    
      8800   300.57444      0.0088         1.1326316     -0.029555106    0.055582572   -616.84157     -406.85081     -11326.316      52.282555      50.246903      50.339446    
      8900   300.91022      0.0089         1.1756001     -0.055742878    0.012614086   -322.71981     -404.37979     -11756.001      52.247221      50.273777      50.344436    
      9000   302.34374      0.009          1.2131336     -0.076580446    0             -171.04268     -538.122       -12131.336      52.219491      50.288161      50.349426    
      9100   300.74828      0.0091         1.1530922     -0.0048986566   0.060041425    1.6189601     -252.81508     -11530.922      52.244472      50.265865      50.354416    
      9200   297.4641       0.0092         1.2068981     -0.048564451    0.00623549    -268.76782     -17.453125     -12068.981      52.257091      50.24963       50.359406    
      9300   296.77939      0.0093         1.2350331     -0.06693441     0             -601.67887     -425.2312      -12350.331      52.242209      50.272166      50.364396    
      9400   303.35051      0.0094         1.2652354     -0.078591379    0             -423.03348     -1168.2431     -12652.354      52.228094      50.303945      50.369386    
      9500   299.58817      0.0095         1.2302932     -0.034314561    0.03494214    -1370.082      -604.91234     -12302.932      52.290199      50.233634      50.374376    
      9600   294.10425      0.0096         1.2351718     -0.034497336    0.030063603   -900.54843     -721.17199     -12351.718      52.242647      50.275041      50.379366    
      9700   300.9845       0.0097         1.3001662     -0.085440681    0             -628.06584     -1663.1791     -13001.662      52.204955      50.330042      50.384356    
      9800   298.3251       0.0098         1.3373648     -0.10216593     0             -1890.151      -1134.4452     -13373.648      52.294868      50.258935      50.389346    
      9900   293.50046      0.0099         1.3206817     -0.070974665    0.016683109   -1027.4726     -1556.6181     -13206.817      52.270532      50.253519      50.394337    
     10000   299.93672      0.01           1.3378387     -0.075661219    0             -975.64646     -1125.2202     -13378.387      52.235967      50.283522      50.399327    
     10100   300.08845      0.0101         1.3223397     -0.043237415    0.015499053   -1255.391      -560.7315      -13223.397      52.251855      50.264778      50.404317    
     10200   301.59397      0.0102         1.3672986     -0.072156295    0             -697.33292     -1488.0212     -13672.986      52.245353      50.286168      50.409307    
     10300   296.272        0.0103         1.3723268     -0.063455122    0             -1215.754      -543.03462     -13723.268      52.257949      50.248314      50.414297    
     10400   301.5077       0.0104         1.3832257     -0.062555018    0             -988.69241     -579.54802     -13832.257      52.241073      50.262252      50.419287    
     10500   301.06341      0.0105         1.4025207     -0.064627212    0             -546.85161     -1195.2501     -14025.207      52.227026      50.282017      50.424277    
     10600   293.84038      0.0106         1.4010998     -0.046613583    0.0014208211  -1198.3535     -162.39036     -14010.998      52.271645      50.220611      50.429267    
     10700   296.86773      0.0107         1.3876833     -0.024445326    0.014837367   -476.01977     -1188.2791     -13876.833      52.213881      50.288484      50.434257    
     10800   299.89226      0.0108         1.4380326     -0.064727801    0             -656.87102     -1382.747      -14380.326      52.213636      50.292007      50.439247    
     10900   300.31351      0.0109         1.4419942     -0.056558164    0             -1774.8481     -507.21076     -14419.942      52.283962      50.219235      50.444237    
     11000   296.50659      0.011          1.4354276     -0.040232665    0.006566616   -388.85769     -1790.5717     -14354.276      52.202632      50.298177      50.449227    
     11100   297.62419      0.0111         1.4812918     -0.070201741    0             -1615.4063     -1210.9107     -14812.918      52.233079      50.271537      50.454217    
     11200   299.07508      0.0112         1.4930393     -0.069375106    0             -1618.8624     -1602.1614     -14930.393      52.24823       50.272692      50.459207    
     11300   300.68319      0.0113         1.5124702     -0.074791683    0             -1205.8423     -2198.8529     -15124.702      52.228276      50.292456      50.464197    
     11400   295.05112      0.0114         1.5313563     -0.078864712    0             -1892.5251     -752.33767     -15313.563      52.264318      50.232097      50.469187    
     11500   299.79626      0.0115         1.5179998     -0.053960323    0.013356475   -882.21219     -1795.6261     -15179.998      52.205042      50.296299      50.474177    
     11600   301.40426      0.0116         1.511349      -0.036284637    0.020007241   -728.99946     -944.34325     -15113.49       52.223428      50.25419       50.479167    
     11700   295.6382       0.0117         1.5008134     -0.014436015    0.030542851   -565.95341     -101.40461     -15008.134      52.230314      50.21711       50.484157    
     11800   296.31226      0.0118         1.483543       0.0073854753   0.047813298    140.25042     -417.26137     -14835.43       52.191774      50.250913      50.489147    
     11900   305.0373       0.0119         1.5516408     -0.049747702    0             -743.15938     -305.24665     -15516.408      52.229296      50.232712      50.494137    
     12000   298.25365      0.012          1.5241254     -0.013362477    0.027515442   -159.77111     -489.70854     -15241.254      52.200283      50.236142      50.499127    
     12100   297.65397      0.0121         1.5727917     -0.052878818    0              176.32301     -290.31527     -15727.917      52.187877      50.243484      50.504117    
     12200   304.48618      0.0122         1.5834834     -0.054526101    0             -670.45027     -144.16373     -15834.834      52.218142      50.227926      50.509107    
     12300   299.42079      0.0123         1.5978979     -0.060397788    0              204.94784     -981.50474     -15978.979      52.183746      50.250026      50.514097    
     12400   298.59173      0.0124         1.6310292     -0.083561798    0             -1198.5637     -219.88423     -16310.292      52.250571      50.198513      50.519087    
     12500   296.70174      0.0125         1.6248322     -0.066681641    0.0061969132  -661.18516     -539.4027      -16248.322      52.170533      50.275999      50.524077    
     12600   300.07166      0.0126         1.6306161     -0.060538773    0.00041307695 -242.7294      -1163.1955     -16306.161      52.170798      50.273772      50.529067    
     12700   299.86107      0.0127         1.6115583     -0.030406533    0.019470826   -1435.1379      456.96696     -16115.583      52.285356      50.149433      50.534057    
     12800   296.01043      0.0128         1.6286301     -0.032969575    0.0023990738   721.68895     -710.36157     -16286.301      52.145309      50.258395      50.539047    
     12900   300.06314      0.0129         1.6242909     -0.021365386    0.0067382552  -105.25161     -160.9676      -16242.909      52.195138      50.219434      50.544037    
     13000   300.99917      0.013          1.6263187     -0.013173807    0.0047105083  -596.73273      394.07472     -16263.187      52.229553      50.180652      50.549028    
     13100   297.32105      0.0131         1.6465191     -0.026001489    0              543.39433     -657.18594     -16465.191      52.156408      50.245274      50.554018    
     13200   299.25142      0.0132         1.6912038     -0.05991417     0             -753.25206      91.744884     -16912.038      52.20679       50.204509      50.559008    
     13300   303.01167      0.0133         1.7161307     -0.073017791    0             -378.0955      -475.69613     -17161.307      52.193579      50.226264      50.563998    
     13400   301.90732      0.0134         1.7252253     -0.072692828    0             -375.98755     -826.87816     -17252.253      52.192236      50.218763      50.568988    
     13500   296.7763       0.0135         1.7268408     -0.064107383    0             -1130.2161      27.004803     -17268.408      52.219726      50.186095      50.573978    
     13600   301.14921      0.0136         1.7394069     -0.06579445     0              251.00397     -1312.9987     -17394.069      52.151023      50.265364      50.578968    
     13700   302.7377       0.0137         1.7507325     -0.063202646    0             -755.37799     -298.1236      -17507.325      52.211541      50.187638      50.583958    
     13800   292.53841      0.0138         1.7337167     -0.035678179    0.017015803   -135.10516      435.6699      -17337.167      52.194483      50.190126      50.588948    
     13900   300.00051      0.0139         1.744109      -0.034088651    0.0066235226   686.16711     -772.17908     -17441.09       52.130742      50.250696      50.593938    
     14000   302.42145      0.014          1.7920389     -0.065446525    0             -1233.6887      461.88741     -17920.389      52.241731      50.150362      50.598928    
     14100   301.52673      0.0141         1.7858612     -0.045334634    0.0061776764   685.11322     -424.24953     -17858.612      52.143136      50.225062      50.603918    
     14200   301.61979      0.0142         1.7726712     -0.023997911    0.019367655    435.10243      19.050479     -17726.712      52.157716      50.208985      50.608908    
     14300   296.61425      0.0143         1.7763515     -0.021656073    0.015687414   -5.9466449      1167.1332     -17763.515      52.202535      50.143374      50.613898    
     14400   299.91023      0.0144         1.7822309     -0.021834954    0.0098079759   1251.8435     -345.2079      -17822.309      52.11698       50.224617      50.618888    
     14500   299.16322      0.0145         1.745385       0.016865424    0.046653934    27.031768      1646.7008     -17453.85       52.185698      50.155147      50.623878    
     14600   301.37617      0.0146         1.7955428     -0.027678789    0              550.68577      458.26894     -17955.428      52.162221      50.172511      50.628868    
     14700   299.36735      0.0147         1.8195714     -0.044823504    0              1279.7936     -34.210972     -18195.714      52.133357      50.197211      50.633858    
     14800   297.45869      0.0148         1.8169769     -0.033903036    0.0025944478  -65.533028      1111.105      -18169.769      52.186013      50.154174      50.638848    
     14900   296.39242      0.0149         1.8310493     -0.039281407    0              1008.5242      459.50828     -18310.493      52.127645      50.204461      50.643838    
     15000   298.32899      0.015          1.8384469     -0.042038213    0              747.77803      359.47981     -18384.469      52.149543      50.18048       50.648828    
     15100   300.17478      0.0151         1.8806686     -0.074779155    0              486.70842      946.4295      -18806.686      52.166671      50.160223      50.653818    
     15200   301.57497      0.0152         1.883375      -0.066415173    0              1007.861       123.10763     -18833.75       52.111847      50.208927      50.658808    
     15300   301.5541       0.0153         1.8548493     -0.030039695    0.028525697    575.13672      934.93675     -18548.493      52.165511      50.156328      50.663798    
     15400   298.16586      0.0154         1.8814245     -0.046695555    0.001950476    711.31791      288.58057     -18814.245      52.14788       50.166908      50.668788    
     15500   300.14108      0.0155         1.8980422     -0.048047554    0              571.47037      565.11606     -18980.422      52.138521      50.168619      50.673778    
     15600   302.00172      0.0156         1.8903367     -0.030862653    0.0077055028   392.17059      1326.7402     -18903.367      52.160464      50.15675       50.678768    
     15700   302.75685      0.0157         1.9430453     -0.071223791    0              990.58849      166.1852      -19430.453      52.122955      50.188542      50.683758    
     15800   298.36479      0.0158         1.9420234     -0.057697298    0.0010218415   575.37089      1379.7621     -19420.234      52.167627      50.122753      50.688748    
     15900   303.27825      0.0159         1.9148784     -0.022169392    0.028166835    884.21022      1387.9602     -19148.784      52.134988      50.149855      50.693738    
     16000   303.45052      0.016          1.929626      -0.027799045    0.013419274    2177.6679      549.53819     -19296.26       52.078873      50.196899      50.698729    
     16100   298.99405      0.0161         1.9650888     -0.054819844    0              235.36413      1970.1555     -19650.888      52.190091      50.086689      50.703719    
     16200   301.6876       0.0162         1.9596442     -0.041748272    0.0054446546   1208.4364      225.81586     -19596.442      52.10648       50.181868      50.708709    
     16300   301.04278      0.0163         1.979304      -0.048962682    0              930.42242      813.07611     -19793.04       52.125598      50.16577       50.713699    
     16400   305.1641       0.0164         2.0022457     -0.059822252    0              92.396681      1107.559      -20022.457      52.163761      50.121516      50.718689    
     16500   303.92938      0.0165         2.0379139     -0.081503248    0              1092.9761     -23.643704     -20379.139      52.113834      50.173904      50.723679    
     16600   303.9189       0.0166         2.0144638     -0.045640459    0.023450081    494.09041      813.40773     -20144.638      52.134296      50.159631      50.728669    
     16700   302.83786      0.0167         2.0414936     -0.062825369    0              369.5705       543.17676     -20414.936      52.138791      50.149529      50.733659    
     16800   299.20414      0.0168         2.0389777     -0.050614039    0.0025159083   717.47255      266.72005     -20389.777      52.135511      50.145776      50.738649    
     16900   305.06642      0.0169         2.0547918     -0.052436886    0              163.55567      934.94795     -20547.918      52.138696      50.147307      50.743639    
     17000   296.55144      0.017          2.0738323     -0.057056724    0              1053.4944      580.85147     -20738.323      52.099542      50.166158      50.748629    
     17100   301.58637      0.0171         2.1282309     -0.095141111    0              381.11209      371.0748      -21282.309      52.136065      50.139283      50.753619    
     17200   300.51052      0.0172         2.0740111     -0.029484579    0.054219842   -17.648106      1288.7192     -20740.111      52.155998      50.117935      50.758609    
     17300   300.12107      0.0173         2.085754      -0.030582522    0.042476903    1242.9466      268.28674     -20857.54       52.078018      50.182552      50.763599    
     17400   298.32122      0.0174         2.106857      -0.041224363    0.02137394     916.24896      1378.0464     -21068.57       52.129441      50.104924      50.768589    
     17500   298.8197       0.0175         2.0773022     -0.0077307919   0.050928679    694.63412      1432.1897     -20773.022      52.145929      50.10463       50.773579    
     17600   297.62727      0.0176         2.1313471     -0.050087311    0              1658.6599      423.7868      -21313.471      52.074395      50.17678       50.778569    
     17700   292.34691      0.0177         2.1652165     -0.071584413    0              313.63615      1527.4461     -21652.165      52.145563      50.111067      50.783559    
     17800   299.97112      0.0178         2.1811196     -0.07327334     0              773.34563      194.82887     -21811.196      52.101228      50.163468      50.788549    
     17900   298.46251      0.0179         2.1700404     -0.050669282    0.011079204    371.57086      248.19538     -21700.404      52.128807      50.149641      50.793539    
     18000   297.28288      0.018          2.2231729     -0.088867706    0             -238.37669      240.48908     -22231.729      52.137266      50.132182      50.798529    
     18100   295.70613      0.0181         2.2249512     -0.080974057    0              381.41617     -399.8417      -22249.512      52.090534      50.183489      50.803519    
     18200   300.97487      0.0182         2.2535986     -0.091662635    0             -629.37017      354.71933     -22535.986      52.152999      50.129159      50.808509    
     18300   302.13684      0.0183         2.2559423     -0.07698753     0             -105.69243     -154.24804     -22559.423      52.135403      50.141938      50.813499    
     18400   304.57525      0.0184         2.2490038     -0.055834317    0.0069385333   414.75407     -386.9202      -22490.038      52.102933      50.172995      50.818489    
     18500   295.21045      0.0185         2.2275202     -0.019328945    0.02842211    -263.03101      752.77648     -22275.202      52.150479      50.106714      50.823479    
     18600   298.02037      0.0186         2.2585583     -0.037645974    0              627.64728     -330.25978     -22585.583      52.109156      50.144852      50.828469    
     18700   304.44824      0.0187         2.2822469     -0.049631479    0             -287.696        89.783268     -22822.469      52.130899      50.143467      50.833459    
     18800   303.03373      0.0188         2.306721      -0.061545457    0             -658.9729      -379.79371     -23067.21       52.100777      50.174485      50.838449    
     18900   295.96931      0.0189         2.2943279     -0.036723593    0.012393112    328.58052     -363.77047     -22943.279      52.108087      50.148938      50.843439    
     19000   302.61583      0.019          2.3385452     -0.069403631    0             -661.87308      361.92788     -23385.452      52.168226      50.097838      50.848429    
     19100   306.09569      0.0191         2.3372843     -0.056909474    0.0012608488  -63.853035     -536.35832     -23372.843      52.094061      50.179211      50.85342     
     19200   296.58735      0.0192         2.3509957     -0.060881165    0              183.66391     -261.69639     -23509.957      52.083469      50.166753      50.85841     
     19300   298.9881       0.0193         2.3677513     -0.066455816    0             -680.18268      502.1819      -23677.513      52.182197      50.074767      50.8634      
     19400   301.72555      0.0194         2.3869486     -0.071858635    0             -17.943102     -820.58469     -23869.486      52.116922      50.150241      50.86839     
     19500   294.80182      0.0195         2.4043067     -0.071538081    0             -348.33225     -589.14205     -24043.067      52.096187      50.159725      50.87338     
     19600   301.29521      0.0196         2.4271347     -0.07750847     0             -654.94922     -555.17393     -24271.347      52.128213      50.130434      50.87837     
     19700   305.01421      0.0197         2.4134552     -0.050708126    0.013679516   -327.43888     -688.90412     -24134.552      52.113025      50.142768      50.88336     
     19800   304.92414      0.0198         2.4291523     -0.054162088    0             -788.38085      72.831285     -24291.523      52.127084      50.120528      50.88835     
     19900   296.45036      0.0199         2.431347      -0.04265494     0              599.97121     -171.89158     -24313.47       52.070172      50.153312      50.89334     
     20000   297.16853      0.02           2.4329289     -0.034798444    0              402.36372      420.78311     -24329.289      52.10695       50.100361      50.89833     
     20100   300.39022      0.0201         2.4347787     -0.026898775    0             -37.680812      1081.4879     -24347.787      52.130868      50.086963      50.90332     
     20200   304.64437      0.0202         2.4325744     -0.016536611    0.0022042999   1204.1612     -757.01606     -24325.744      52.012418      50.203288      50.90831     
     20300   296.0703       0.0203         2.4833195     -0.055724928    0              1.9444491      1149.1254     -24833.195      52.113591      50.08853       50.9133      
     20400   296.78789      0.0204         2.4642473     -0.028922816    0.019072242    185.13874      523.46157     -24642.473      52.140569      50.071486      50.91829     
     20500   302.11476      0.0205         2.474357      -0.032027515    0.0089625096   559.19958     -186.16599     -24743.57       52.063539      50.155285      50.92328     
     20600   298.43465      0.0206         2.4837788     -0.035784897    0             -409.55169      910.40981     -24837.788      52.098163      50.109477      50.92827     
     20700   299.74402      0.0207         2.5203752     -0.061689279    0              726.94008      17.862314     -25203.752      52.072763      50.124302      50.93326     
     20800   302.17007      0.0208         2.552694      -0.081653915    0              351.30468      280.80088     -25526.94       52.094407      50.111924      50.93825     
     20900   298.8214       0.0209         2.5062914     -0.027756925    0.046402549   -24.218742      695.67058     -25062.914      52.08614       50.113432      50.94324     
     21000   297.55742      0.021          2.5443876     -0.054707255    0.008306345    412.66445     -184.9013      -25443.876      52.061336      50.128767      50.94823     
     21100   299.63948      0.0211         2.5656825     -0.062911693    0             -297.76936      403.35466     -25656.825      52.122828      50.091447      50.95322     
     21200   297.1222       0.0212         2.5352807     -0.022239279    0.030401784    283.59906      88.54107      -25352.807      52.081306      50.11507       50.95821     
     21300   299.88447      0.0213         2.5773202     -0.054878715    0              273.25687     -157.75978     -25773.202      52.06202       50.13171       50.9632      
     21400   300.00711      0.0214         2.5805951     -0.046518864    0             -454.17541      255.14132     -25805.951      52.11809       50.095956      50.96819     
     21500   300.55497      0.0215         2.5942495     -0.048184038    0             -62.001733     -78.317719     -25942.495      52.09495       50.109098      50.97318     
     21600   301.18077      0.0216         2.6416651     -0.079810953    0             -459.88331     -306.75377     -26416.651      52.084783      50.120725      50.97817     
     21700   298.83142      0.0217         2.6338177     -0.060619317    0.0078473836  -456.48058     -190.44766     -26338.177      52.088889      50.122917      50.98316     
     21800   305.38766      0.0218         2.6809276     -0.094905824    0             -174.10774     -958.52053     -26809.276      52.090381      50.134726      50.98815     
     21900   305.26814      0.0219         2.6743179     -0.071493549    0.0066096246  -1266.5802      128.266       -26743.179      52.139515      50.065993      50.99314     
     22000   296.85365      0.022          2.6727924     -0.057127496    0.0081352068   483.34216     -587.39424     -26727.924      52.036681      50.155255      50.99813     
     22100   298.91232      0.0221         2.6285587     -0.0066062027   0.052368877   -222.16249      154.28786     -26285.587      52.099707      50.084383      51.00312     
     22200   298.28931      0.0222         2.6673625     -0.032201802    0.013565099   -667.8586       601.13879     -26673.625      52.130972      50.057314      51.008111    
     22300   300.66143      0.0223         2.7244723     -0.074596392    0              632.14657     -971.57322     -27244.723      52.02712       50.161813      51.013101    
     22400   296.99798      0.0224         2.7292441     -0.064503295    0             -559.4449       131.11533     -27292.441      52.094063      50.091235      51.018091    
     22500   304.18301      0.0225         2.7299182     -0.051610595    0             -646.39343     -516.60731     -27299.182      52.10441       50.09691       51.023081    
     22600   298.20435      0.0226         2.747451      -0.058564761    0             -13.237542     -730.07445     -27474.51       52.066511      50.12299       51.028071    
     22700   295.80974      0.0227         2.7750366     -0.072028505    0             -786.41731      343.18521     -27750.366      52.095744      50.084865      51.033061    
     22800   300.16732      0.0228         2.801874      -0.08677122     0             -391.41787     -645.19132     -28018.74       52.076796      50.119377      51.038051    
     22900   299.49485      0.0229         2.7923813     -0.065472192    0.0094926937  -727.90436     -522.27471     -27923.813      52.094216      50.107895      51.043041    
     23000   297.25949      0.023          2.8460114     -0.10178039     0             -1605.4572     -637.26745     -28460.114      52.107189      50.102549      51.048031    
     23100   298.01386      0.0231         2.8234731     -0.059750625    0.022538327   -218.96334     -2262.3373     -28234.731      52.035665      50.179619      51.053021    
     23200   303.82954      0.0232         2.8345584     -0.054116339    0.011453023   -2098.9426     -755.31261     -28345.584      52.149577      50.071847      51.058011    
     23300   301.59029      0.0233         2.888474      -0.091631785    0             -1250.6315     -1508.8582     -28884.74       52.091827      50.118517      51.063001    
     23400   296.51149      0.0234         2.8847878     -0.072391246    0.0036861635  -481.65061     -1564.2272     -28847.878      52.04612       50.156788      51.067991    
     23500   302.72608      0.0235         2.8614913     -0.03593738     0.026982727   -1574.9602     -335.87971     -28614.913      52.121064      50.075738      51.072981    
     23600   300.86716      0.0236         2.8333353      0.00080698878  0.055138663   -225.72287     -1251.8221     -28333.353      52.055041      50.133611      51.077971    
     23700   296.96732      0.0237         2.8833529     -0.038378923    0.0051211284  -553.03589     -224.88152     -28833.529      52.073917      50.089087      51.082961    
     23800   297.00764      0.0238         2.8967985     -0.042332114    0             -556.14707     -193.28989     -28967.985      52.078586      50.093656      51.087951    
     23900   300.52901      0.0239         2.9033593     -0.0377951      0             -96.000205     -1483.2075     -29033.593      52.051541      50.133604      51.092941    
     24000   298.87652      0.024          2.9541698     -0.077789786    0             -1237.5854     -400.03812     -29541.698      52.088453      50.087629      51.097931    
     24100   304.2558       0.0241         2.9624752     -0.072194972    0             -654.20225     -1243.81       -29624.752      52.053714      50.120929      51.102921    
     24200   301.66704      0.0242         2.9300205     -0.030194063    0.032454693   -458.41459     -836.70866     -29300.205      52.065668      50.104365      51.107911    
     24300   300.75989      0.0243         2.9071657     -0.005470107    0.055309474   -866.26532     -90.88248      -29071.657      52.085905      50.082433      51.112901    
     24400   297.06047      0.0244         2.936111      -0.029283047    0.026364217    251.5675      -522.24465     -29361.11       52.02683       50.114382      51.117891    
     24500   299.16065      0.0245         2.9405762     -0.02583977     0.021898998   -166.40012      210.92563     -29405.762      52.071851      50.063865      51.122881    
     24600   303.40669      0.0246         2.9483278     -0.022092076    0.014147448   -261.80485     -75.830846     -29483.278      52.066487      50.085161      51.127871    
     24700   297.00084      0.0247         2.9741692     -0.038851878    0              445.82184     -484.39283     -29741.692      52.018327      50.112576      51.132861    
     24800   303.69773      0.0248         2.9858832     -0.041657444    0             -752.94771      101.70926     -29858.832      52.073966      50.058004      51.137851    
     24900   302.57453      0.0249         2.9773761     -0.025748648    0.0085071114  -0.74022718    -322.61698     -29773.761      52.039006      50.090123      51.142841    
     25000   301.65962      0.025          3.0150786     -0.05736023     0             -15.290273     -251.50399     -30150.786      52.030025      50.091723      51.147831    
     25100   293.63626      0.0251         3.0051394     -0.043154614    0.0099391976  -300.5172       874.84045     -30051.394      52.047841      50.055219      51.152821    
     25200   300.16928      0.0252         3.0098348     -0.0398686      0.0052437828   535.51433     -827.03816     -30098.348      52.018888      50.105014      51.157811    
     25300   302.59344      0.0253         3.0511109     -0.066750134    0             -507.95772     -601.61689     -30511.109      52.052309      50.078672      51.162802    
     25400   296.5537       0.0254         3.0781389     -0.079575395    0             -759.65569      5.7501328     -30781.389      52.063577      50.060961      51.167792    
     25500   303.09418      0.0255         3.0572032     -0.046977002    0.020935692   -44.620314     -1389.2171     -30572.032      52.011554      50.124048      51.172782    
     25600   298.59551      0.0256         3.0741933     -0.051380495    0.0039456503  -998.56002     -213.90689     -30741.933      52.074529      50.062764      51.177772    
     25700   295.99166      0.0257         3.0845896     -0.050734787    0             -820.30176     -612.14813     -30845.896      52.057861      50.061921      51.182762    
     25800   300.08162      0.0258         3.1027977     -0.057251426    0             -428.67282     -1057.0785     -31027.977      52.027938      50.098844      51.187752    
     25900   297.08862      0.0259         3.0921726     -0.035146712    0.010625067   -552.37157     -190.5293      -30921.726      52.05531       50.066191      51.192742    
     26000   298.92619      0.026          3.1235439     -0.05567151     0             -203.38936     -895.95887     -31235.439      52.021691      50.098231      51.197732    
     26100   296.25037      0.0261         3.1581533     -0.074979478    0             -1169.645      -108.2704      -31581.533      52.054552      50.052502      51.202722    
     26200   300.89412      0.0262         3.165706      -0.06694505     0             -898.79519     -689.77152     -31657.06       52.037608      50.088754      51.207712    
     26300   298.60864      0.0263         3.1294721     -0.022875061    0.036233862   -736.18667     -1195.6856     -31294.721      52.027634      50.098039      51.212702    
     26400   297.66112      0.0264         3.2134575     -0.093328563    0             -1329.4072     -328.80145     -32134.575      52.063574      50.052045      51.217692    
     26500   299.17715      0.0265         3.1908899     -0.057392323    0.022567572   -354.80564     -948.48324     -31908.899      52.021755      50.08891       51.222682    
     26600   298.39827      0.0266         3.1867491     -0.041995957    0.026708351   -650.8673      -432.9513      -31867.491      52.051583      50.060652      51.227672    
     26700   297.39227      0.0267         3.1770797     -0.023077501    0.036377798   -273.1487      -551.47078     -31770.797      52.03184       50.065183      51.232662    
     26800   299.27855      0.0268         3.2284579     -0.061889716    0             -485.59642     -716.68532     -32284.579      52.025107      50.073033      51.237652    
     26900   301.26592      0.0269         3.2024054     -0.024813885    0.026052555   -947.18772     -60.756094     -32024.054      52.05325       50.051256      51.242642    
     27000   297.34019      0.027          3.2189351     -0.03180451     0.0095228128   384.35704     -871.79153     -32189.351      51.997391      50.091623      51.247632    
     27100   298.72579      0.0271         3.2421267     -0.046598724    0             -338.14499     -57.249559     -32421.267      52.041998      50.042989      51.252622    
     27200   298.91608      0.0272         3.2316069     -0.029488899    0.01051973    -452.3123       167.01547     -32316.069      52.043356      50.035942      51.257612    
     27300   299.19371      0.0273         3.2103895     -0.00017975767  0.031737131    697.07424     -273.34793     -32103.895      51.98078       50.0823        51.262602    
     27400   302.99704      0.0274         3.2321555     -0.020075925    0.0099711617  -383.69831      538.89665     -32321.555      52.03686       50.03006       51.267592    
     27500   294.61331      0.0275         3.2818921     -0.060712289    0              447.53869      222.50308     -32818.921      52.005661      50.050869      51.272582    
     27600   301.83537      0.0276         3.2669854     -0.037782029    0.014906627    119.53642     -154.59291     -32669.854      52.014151      50.059128      51.277572    
     27700   301.06535      0.0277         3.3115746     -0.068921719    0             -541.04237      386.92843     -33115.746      52.035289      50.033297      51.282562    
     27800   298.2263       0.0278         3.3134459     -0.062294166    0              129.45622     -709.20989     -33134.459      51.992642      50.073745      51.287552    
     27900   300.84295      0.0279         3.3432323     -0.077997869    0             -424.55053     -513.90644     -33432.323      52.025664      50.059718      51.292542    
     28000   306.10844      0.028          3.3289155     -0.052683019    0.014316815   -660.22129     -561.44732     -33289.155      52.035305      50.060653      51.297532    
     28100   300.14971      0.0281         3.3435751     -0.057197849    0             -167.68125     -692.79195     -33435.751      51.997843      50.074818      51.302522    
     28200   294.12698      0.0282         3.3549778     -0.056263463    0             -1172.3522      41.471771     -33549.778      52.046573      50.031504      51.307512    
     28300   302.58178      0.0283         3.4056113     -0.087374792    0             -725.2657      -953.64008     -34056.113      52.026245      50.064089      51.312502    
     28400   298.32757      0.0284         3.3613708     -0.030212708    0.044240554   -305.25097     -664.61957     -33613.708      52.021257      50.055984      51.317493    
     28500   295.63872      0.0285         3.3413386     -0.0042358541   0.064272756   -266.02698      55.773117     -33413.386      52.001073      50.045552      51.322483    
     28600   297.8329       0.0286         3.4025877     -0.05192476     0.0030236221   34.518349     -435.47509     -34025.877      51.986083      50.064058      51.327473    
     28700   301.73331      0.0287         3.3916494     -0.032978995    0.013961907   -536.42209     -446.14113     -33916.494      52.034248      50.033578      51.332463    
     28800   300.57713      0.0288         3.4219053     -0.052388879    0             -881.90873     -612.82061     -34219.053      52.021096      50.041791      51.337453    
     28900   298.98565      0.0289         3.4469575     -0.067068555    0             -521.39206     -974.91195     -34469.575      51.977001      50.082142      51.342443    
     29000   301.1166       0.029          3.4529325     -0.060641863    0             -1118.796      -652.64006     -34529.325      52.030507      50.042722      51.347433    
     29100   303.85768      0.0291         3.4405096     -0.038525534    0.012422884   -922.75446     -859.91507     -34405.096      52.01878       50.062981      51.352423    
     29200   299.71936      0.0292         3.475333      -0.061313408    0             -810.2818      -678.28035     -34753.33       51.998607      50.061423      51.357413    
     29300   297.1975       0.0293         3.5121861     -0.087509077    0             -314.95388     -363.77925     -35121.861      51.999206      50.046542      51.362403    
     29400   303.01394      0.0294         3.4940286     -0.05608577     0.018157527   -431.70156     -583.59767     -34940.286      52.009233      50.039374      51.367393    
     29500   299.75355      0.0295         3.4699422     -0.019139047    0.042243886   -717.97585     -502.94405     -34699.422      52.006727      50.035858      51.372383    
     29600   294.22181      0.0296         3.4743589     -0.016378637    0.037827173   -240.97498     -234.93609     -34743.589      51.974433      50.051438      51.377373    
     29700   297.51335      0.0297         3.5261009     -0.05467547     0             -444.71557     -682.3611      -35261.009      51.989511      50.055941      51.382363    
     29800   301.33032      0.0298         3.5571369     -0.072188246    0             -1360.1055     -591.86837     -35571.369      52.054519      50.003724      51.387353    
     29900   296.11248      0.0299         3.5316558     -0.038237376    0.025481032   -67.998915     -1242.1234     -35316.558      51.951882      50.095843      51.392343    
     30000   299.2792       0.03           3.5512813     -0.048027941    0.0058555872  -999.34739     -683.59382     -35512.813      51.993445      50.050429      51.397333    
     30100   298.73156      0.0301         3.5908418     -0.072555224    0             -972.47974     -881.57664     -35908.418      52.020169      50.015581      51.402323    
     30200   302.22341      0.0302         3.5795201     -0.050814874    0.011321633   -736.79425     -1218.3932     -35795.201      52.007088      50.042595      51.407313    
     30300   299.45788      0.0303         3.5871567     -0.050954411    0.0036850337  -675.38325     -792.4584      -35871.567      51.984713      50.056386      51.412303    
     30400   296.22122      0.0304         3.6120917     -0.064083089    0             -710.68761     -480.83748     -36120.917      51.992157      50.030315      51.417293    
     30500   295.66067      0.0305         3.6085637     -0.046692905    0.0035280375  -297.0355      -545.0666      -36085.637      51.993991      50.030428      51.422283    
     30600   304.22575      0.0306         3.6401457     -0.061696223    0             -962.38571     -545.19553     -36401.457      52.011535      50.017354      51.427273    
     30700   296.1994       0.0307         3.6254759     -0.037088946    0.014669779   -232.2225      -632.14464     -36254.759      51.974313      50.036785      51.432263    
     30800   296.80639      0.0308         3.6510007     -0.053227321    0             -192.35557     -666.09869     -36510.007      51.964551      50.037759      51.437253    
     30900   302.09692      0.0309         3.6461207     -0.036900863    0.0048799713  -960.12168     -645.01038     -36461.207      52.015315      50.016537      51.442243    
     31000   299.93856      0.031          3.6967266     -0.072962216    0             -103.83041     -1254.6153     -36967.266      51.959639      50.061075      51.447233    
     31100   300.11351      0.0311         3.6553167     -0.025104885    0.041409834   -822.57366     -465.6849      -36553.167      51.991973      50.014773      51.452223    
     31200   297.52963      0.0312         3.6876722     -0.046645147    0.0090543648  -866.34018     -605.90881     -36876.722      52.006483      50.007861      51.457213    
     31300   301.23034      0.0313         3.6816982     -0.031217005    0.015028359   -446.24499     -1331.248      -36816.982      51.979767      50.040289      51.462203    
     31400   299.81809      0.0314         3.7074718     -0.047452615    0             -1275.953      -445.73337     -37074.718      52.009722      50.012165      51.467193    
     31500   294.87535      0.0315         3.7008603     -0.031611412    0.0066115419  -298.08554     -472.36792     -37008.603      51.971468      50.018063      51.472184    
     31600   295.15457      0.0316         3.7256284     -0.047831261    0             -112.52294     -175.69049     -37256.284      51.988071      50.001863      51.477174    
     31700   302.38797      0.0317         3.7393323     -0.050149544    0             -270.60493      143.15289     -37393.323      51.978707      50.006837      51.482164    
     31800   297.50769      0.0318         3.7340006     -0.036517785    0.0053317678   392.50767     -18.932699     -37340.006      51.944533      50.020441      51.487154    
     31900   302.4143       0.0319         3.74195       -0.034884308    0             -226.53582      151.86605     -37419.5        51.999807      49.977611      51.492144    
     32000   301.92294      0.032          3.710025      -0.0016293988   0.031925071    609.71164      45.842462     -37100.25       51.949094      50.005371      51.497134    
     32100   298.2489       0.0321         3.7431797     -0.025997854    0              132.95842      202.33625     -37431.797      51.954199      50.006905      51.502124    
     32200   303.35433      0.0322         3.7454332     -0.022475198    0             -395.54774      147.05631     -37454.332      51.974529      49.992762      51.507114    
     32300   306.54243      0.0323         3.7812449     -0.048332294    0              402.72517     -748.08451     -37812.449      51.961078      50.017493      51.512104    
     32400   301.55545      0.0324         3.7635282     -0.025009979    0.017716674   -768.94616      741.90021     -37635.282      52.002083      49.952033      51.517094    
     32500   301.47587      0.0325         3.7883162     -0.04105233     0              945.09349     -84.884443     -37883.162      51.893668      50.034768      51.522084    
     32600   301.75483      0.0326         3.7540607     -0.0039536015   0.034255502    1055.6603      799.99788     -37540.607      51.943969      49.984439      51.527074    
     32700   302.99215      0.0327         3.8147344     -0.057087116    0              165.24754      1096.7745     -38147.344      51.982702      49.941447      51.532064    
     32800   298.74712      0.0328         3.7928785     -0.029343446    0.021855875    1014.2425      128.83319     -37928.785      51.905542      50.012097      51.537054    
     32900   293.21712      0.0329         3.7637474      0.0019674655   0.050987055    514.50714      1092.5554     -37637.474      51.952638      49.972462      51.542044    
     33000   299.30356      0.033          3.7806277     -0.0078526443   0.034106668    151.56034      350.19146     -37806.277      51.967154      49.972199      51.547034    
     33100   294.12848      0.0331         3.8222989     -0.041611894    0              639.96734      320.26444     -38222.989      51.929355      49.990408      51.552024    
     33200   294.43858      0.0332         3.8082963     -0.021323003    0.014002574    399.35343      908.96412     -38082.963      51.947448      49.974857      51.557014    
     33300   304.1152       0.0333         3.8675306     -0.071928721    0              470.96882     -630.23812     -38675.306      51.929889      50.011051      51.562004    
     33400   301.44879      0.0334         3.8873705     -0.079384338    0             -402.19523      67.194697     -38873.705      51.971741      49.972445      51.566994    
     33500   299.92187      0.0335         3.9622245     -0.13684751     0             -501.98266     -357.84939     -39622.245      51.958187      49.995915      51.571984    
     33600   304.5452       0.0336         3.9322812     -0.089082186    0.029943279    101.794       -1470.9449     -39322.812      51.909652      50.052887      51.576974    
     33700   300.64615      0.0337         3.9226545     -0.068663467    0.039569991   -1678.1456      564.06124     -39226.545      52.047127      49.91251       51.581964    
     33800   296.83594      0.0338         3.9363931     -0.068050673    0.025831324    249.82386     -1037.7333     -39363.931      51.919672      50.030199      51.586954    
     33900   305.71046      0.0339         3.9561007     -0.068522879    0.0061237849  -1071.4945     -830.68703     -39561.007      51.959359      50.011749      51.591944    
     34000   299.90352      0.034          3.9771306     -0.069902523    0             -1342.5735     -337.1547      -39771.306      51.991281      49.971354      51.596934    
     34100   299.64503      0.0341         3.96784       -0.046057823    0.0092905879   82.568944     -1203.5948     -39678.4        51.928436      50.014195      51.601924    
     34200   303.14138      0.0342         3.9654195     -0.027924943    0.011711156   -846.51808      5.4809349     -39654.195      51.985174      49.965394      51.606914    
     34300   298.12123      0.0343         3.9906804     -0.040870889    0             -122.77128     -188.30494     -39906.804      51.933343      49.994534      51.611904    
     34400   296.92045      0.0344         3.9784315     -0.019515905    0.012248881    173.39688      94.110998     -39784.315      51.947339      49.974989      51.616894    
     34500   300.36837      0.0345         3.9819131     -0.021028649    0.0087672733  -431.65597      411.21116     -39819.131      51.975827      49.953369      51.621884    
     34600   297.49456      0.0346         4.0222825     -0.052397905    0              588.0144      -674.13504     -40222.825      51.8945        50.021163      51.626875    
     34700   295.15468      0.0347         4.0282739     -0.047827352    0             -548.42299      707.42474     -40282.739      51.974201      49.94878       51.631865    
     34800   299.66605      0.0348         4.0090352     -0.021324444    0.019238705    13.788889     -115.31733     -40090.352      51.945535      49.976682      51.636855    
     34900   298.99125      0.0349         4.0386296     -0.042666021    0              374.4111      -476.92682     -40386.296      51.909003      49.992548      51.641845    
     35000   301.47926      0.035          4.0743541     -0.068668121    0             -996.86588      809.97274     -40743.541      51.975643      49.938858      51.646835    
     35100   304.44834      0.0351         4.0574449     -0.042798408    0.016909228    940.68549     -785.94769     -40574.449      51.888525      50.015325      51.651825    
     35200   299.61727      0.0352         4.1013698     -0.073128302    0             -190.6393       178.35073     -41013.698      51.964338      49.944293      51.656815    
     35300   301.05906      0.0353         4.0869555     -0.049086509    0.014414279   -607.15954      366.14208     -40869.555      51.964841      49.943818      51.661805    
     35400   302.65228      0.0354         4.0622441     -0.01599379     0.039125743    960.20293     -1594.0585     -40622.441      51.85801       50.05626       51.666795    
     35500   296.66829      0.0355         4.0882721     -0.031385934    0.0130977     -1299.7551      926.40201     -40882.721      52.001523      49.907192      51.671785    
     35600   296.19865      0.0356         4.1112902     -0.045503249    0              94.997695     -548.92793     -41112.902      51.927503      49.978147      51.676775    
     35700   300.1013       0.0357         4.0957425     -0.023208674    0.015547716    528.28351     -604.26109     -40957.425      51.893705      50.014435      51.681765    
     35800   300.47821      0.0358         4.111547      -0.028762006    0             -900.85167      463.14199     -41115.47       51.956543      49.937667      51.686755    
     35900   297.17028      0.0359         4.1533757     -0.059116082    0              516.26925     -743.17275     -41533.757      51.901301      49.99576       51.691745    
     36000   303.33631      0.036          4.1551633     -0.052822775    0             -711.63081     -172.49902     -41551.633      51.963077      49.955703      51.696735    
     36100   301.31827      0.0361         4.1462219     -0.035003702    0.008941371   -460.35195     -404.74032     -41462.219      51.921337      49.979297      51.701725    
     36200   306.33782      0.0362         4.1887133     -0.068760738    0             -32.73874      -1033.3073     -41887.133      51.885099      50.004693      51.706715    
     36300   302.59069      0.0363         4.1568476     -0.029905815    0.031865719   -820.05819      900.70553     -41568.476      51.981024      49.898838      51.711705    
     36400   300.60728      0.0364         4.1221294      0.01080088     0.06658388     1141.9755     -110.13616     -41221.294      51.874255      49.994626      51.716695    
     36500   300.85997      0.0365         4.1767199     -0.034944891    0.011993323    581.10879      650.99557     -41767.199      51.886673      49.960148      51.721685    
     36600   300.72614      0.0366         4.1679937     -0.020548288    0.020719574   -59.780334      1089.2336     -41679.937      51.94919       49.901445      51.726675    
     36700   300.38214      0.0367         4.1697715     -0.014923215    0.01894174     1412.9964     -153.43563     -41697.715      51.872908      49.972967      51.731665    
     36800   300.47661      0.0368         4.1979506     -0.034461895    0              60.716604      983.61146     -41979.506      51.915597      49.93194       51.736655    
     36900   299.85416      0.0369         4.1908842     -0.023644625    0.0070664203   487.22859      578.99561     -41908.842      51.885467      49.960916      51.741645    
     37000   297.19738      0.037          4.1890479     -0.018419897    0.0089026856   760.17687      413.47798     -41890.479      51.897657      49.945466      51.746635    
     37100   304.80495      0.0371         4.2434986     -0.063142957    0             -509.27051      1234.6368     -42434.986      51.956292      49.902338      51.751625    
     37200   301.34545      0.0372         4.2665683     -0.078427162    0              866.16585     -318.95242     -42665.683      51.85337       49.989588      51.756615    
     37300   296.59029      0.0373         4.2597268     -0.061297747    0.0068414866   319.44852      85.691323     -42597.268      51.911917      49.938673      51.761605    
     37400   303.9836       0.0374         4.2799771     -0.065763232    0             -670.30136      497.03285     -42799.771      51.946924      49.915496      51.766595    
     37500   302.80594      0.0375         4.3083781     -0.080998388    0              545.2102      -406.00276     -43083.781      51.859516      49.995452      51.771585    
     37600   298.19571      0.0376         4.2634728     -0.026545206    0.044905272    115.57316      515.30955     -42634.728      51.892196      49.933487      51.776575    
     37700   298.60591      0.0377         4.2733812     -0.026092616    0.034996899    629.54276      741.87196     -42733.812      51.907833      49.91515       51.781566    
     37800   306.34589      0.0378         4.3010947     -0.043491703    0.0072834019   253.47        -114.79478     -43010.947      51.902336      49.93799       51.786556    
     37900   299.12621      0.0379         4.3106363     -0.041058095    0              41.282498      228.94993     -43106.363      51.885035      49.940577      51.791546    
     38000   300.23935      0.038          4.343489      -0.058466707    0              231.56005      314.90017     -43434.89       51.886755      49.935416      51.796536    
     38100   299.17454      0.0381         4.3441986     -0.049106317    0              911.74768      994.85071     -43441.986      51.908394      49.905821      51.801526    
     38200   301.59748      0.0382         4.3185777     -0.018284483    0.025620897    1144.4598      944.90738     -43185.777      51.874714      49.933669      51.806516    
     38300   298.50091      0.0383         4.324579      -0.017800579    0.019619584    1132.3862      1208.4067     -43245.79       51.858506      49.93482       51.811506    
     38400   298.79324      0.0384         4.3266121     -0.015170161    0.017586501    1245.4984      1034.4386     -43266.121      51.874313      49.913417      51.816496    
     38500   304.44721      0.0385         4.350972      -0.035270627    0              818.98733      1130.8913     -43509.72       51.914014      49.888605      51.821486    
     38600   299.93277      0.0386         4.3810836     -0.053621215    0              1235.444       825.00893     -43810.836      51.84738       49.938514      51.826476    
     38700   300.47038      0.0387         4.3746751     -0.037083275    0.0064085493   959.72099      726.43716     -43746.751      51.854379      49.938515      51.831466    
     38800   301.52861      0.0388         4.4015045     -0.053871699    0              470.51651      1036.4998     -44015.045      51.914495      49.891468      51.836456    
     38900   298.87897      0.0389         4.4089594     -0.051494262    0              1120.7456      451.76295     -44089.594      51.874065      49.917186      51.841446    
     39000   298.91771      0.039          4.3979804     -0.035066168    0.010978953    763.98026      654.52381     -43979.804      51.839765      49.949177      51.846436    
     39100   299.88086      0.0391         4.4418895     -0.069206208    0              598.83778      722.09518     -44418.895      51.884577      49.919872      51.851426    
     39200   301.36662      0.0392         4.4562918     -0.069837077    0              546.38532     -33.836633     -44562.918      51.874918      49.932605      51.856416    
     39300   296.60388      0.0393         4.4597126     -0.059744489    0              227.99715      735.89261     -44597.126      51.888209      49.909037      51.861406    
     39400   297.19468      0.0394         4.3933575      0.013285165    0.066355117    911.63575      496.16907     -43933.575      51.860316      49.93682       51.866396    
     39500   298.58172      0.0395         4.4347656     -0.019743574    0.024947018    543.86381      798.07433     -44347.656      51.880291      49.908532      51.871386    
     39600   295.92001      0.0396         4.4760858     -0.051563609    0              740.84782      714.81341     -44760.858      51.879389      49.900831      51.876376    
[...]
     75000   299.34494      0.075          7.1741671      0.014004258    0.054941881   -114.27602      771.91302     -71741.671      51.584259      49.600755      53.642848    
     75100   299.67739      0.0751         7.1962392     -0.005666077    0.032869751    861.00116     -446.71327     -71962.392      51.521026      49.684024      53.647838    
     75200   300.45524      0.0752         7.1950888     -0.00099706476  0.034020228   -479.93841      690.70886     -71950.888      51.606626      49.586802      53.652828    
     75300   297.4752       0.0753         7.2038311     -0.0042307379   0.025277881    104.88056      179.40056     -72038.311      51.563752      49.625541      53.657818    
     75400   300.27229      0.0754         7.1623201      0.035989504    0.06678892     859.31787     -788.63429     -71623.201      51.510949      49.682031      53.662808    
     75500   306.7523       0.0755         7.2243075     -0.026478059    0.0048015081  -951.68026      511.49095     -72243.075      51.616158      49.597493      53.667798    
     75600   303.29174      0.0756         7.2643139     -0.061729359    0             -460.87837     -508.05764     -72643.139      51.568751      49.635512      53.672788    
     75700   303.72044      0.0757         7.2570346     -0.049804063    0.0072792136   181.865       -1017.1477     -72570.346      51.534619      49.662169      53.677778    
     75800   303.8797       0.0758         7.2273768     -0.015622075    0.036937045   -520.18465      505.2621      -72273.768      51.590386      49.61016       53.682768    
     75900   298.72938      0.0759         7.2615393     -0.044917437    0.0027745821   837.57129      90.598674     -72615.393      51.524725      49.644103      53.687758    
     76000   295.78928      0.076          7.2497631     -0.02558167     0.01455075     804.43182      704.4389      -72497.631      51.544841      49.616143      53.692748    
     76100   302.43688      0.0761         7.2412336     -0.012552757    0.023080223    70.008733      1358.581      -72412.336      51.582481      49.584758      53.697738    
     76200   301.19875      0.0762         7.24249       -0.0090690273   0.021823826    1207.2488     -244.62226     -72424.9        51.502135      49.660075      53.702728    
     76300   298.31         0.0763         7.3070925     -0.06334538     0             -83.299314      812.26549     -73070.925      51.571901      49.588848      53.707718    
     76400   297.74344      0.0764         7.2818268     -0.026129004    0.025265701    451.29135      796.12186     -72818.268      51.555169      49.614279      53.712708    
     76500   299.56212      0.0765         7.3456359     -0.077805231    0              729.09191     -399.71484     -73456.359      51.529862      49.647717      53.717698    
     76600   299.9943       0.0766         7.3076859     -0.035518006    0.037950024   -198.28222      255.09043     -73076.859      51.565449      49.609873      53.722688    
     76700   299.78371      0.0767         7.3223998     -0.043695453    0.023236059   -98.631417     -342.72317     -73223.998      51.539622      49.642819      53.727678    
     76800   303.1702       0.0768         7.306384      -0.019778903    0.03925189    -26.863583      40.705004     -73063.84       51.560516      49.62652       53.732668    
     76900   301.89298      0.0769         7.2675145      0.019688114    0.078121383   -112.08447      160.41091     -72675.145      51.562086      49.616605      53.737658    
     77000   296.32566      0.077          7.3202508     -0.025999399    0.025385102    44.078956     -320.82001     -73202.508      51.549861      49.628026      53.742648    
     77100   301.50632      0.0771         7.343283      -0.038826629    0.0023529406  -923.89573     -579.98168     -73432.83       51.575739      49.628112      53.747638    
     77200   301.27021      0.0772         7.3288532     -0.015760559    0.016782694   -1318.477      -952.52236     -73288.532      51.597662      49.620939      53.752628    
     77300   299.01957      0.0773         7.3965936     -0.074550804    0             -1142.8801     -2087.732      -73965.936      51.564768      49.659241      53.757618    
     77400   302.8112       0.0774         7.3806071     -0.048686337    0.01598644    -1516.6372     -878.8932      -73806.071      51.600193      49.615022      53.762608    
     77500   298.04721      0.0775         7.3202489      0.0091331603   0.076344634   -457.94456     -880.85673     -73202.489      51.55098       49.63356       53.767598    
     77600   297.00934      0.0776         7.3735152     -0.037550148    0.023078398   -263.78135     -342.12628     -73735.152      51.55315       49.614427      53.772588    
     77700   299.54676      0.0777         7.3670859     -0.026652316    0.029507621   -359.89814     -18.822562     -73670.859      51.569278      49.600796      53.777578    
     77800   300.90524      0.0778         7.3603377     -0.014508691    0.03625588     51.235266     -254.70802     -73603.377      51.549195      49.614414      53.782568    
     77900   300.55694      0.0779         7.3885538     -0.030620907    0.0080397338  -51.931282     -132.78765     -73885.538      51.544374      49.60571       53.787559    
     78000   302.68126      0.078          7.3947687     -0.029383993    0.0018248579   20.837649      763.64038     -73947.687      51.566553      49.572253      53.792549    
     78100   302.47242      0.0781         7.3309512      0.033200305    0.065642329    939.88133      441.39725     -73309.512      51.521471      49.601983      53.797539    
     78200   302.24309      0.0782         7.3468769      0.019076985    0.049716638    305.21222      700.24282     -73468.769      51.541153      49.577832      53.802529    
     78300   305.20495      0.0783         7.3437283      0.016939066    0.052865243    357.6071       436.56225     -73437.283      51.534442      49.589868      53.807519    
     78400   302.3881       0.0784         7.3655501     -0.0063884192   0.03104346     857.573        590.42013     -73655.501      51.514751      49.614718      53.812509    
     78500   299.69979      0.0785         7.3637503     -0.00023848725  0.032843254    12.09702       622.59891     -73637.503      51.545778      49.579637      53.817499    
     78600   300.23345      0.0786         7.4320919     -0.062722461    0              695.57947      370.85828     -74320.919      51.53246       49.599619      53.822489    
     78700   302.44097      0.0787         7.4389867     -0.062427106    0              663.58777      51.10382      -74389.867      51.528029      49.609637      53.827479    
     78800   301.92329      0.0788         7.409903      -0.028386882    0.029083694    277.3696       254.4042      -74099.03       51.542213      49.604746      53.832469    
     78900   302.80754      0.0789         7.4579833     -0.069524224    0             -64.289643      67.56301      -74579.833      51.538949      49.594834      53.837459    
     79000   300.61926      0.079          7.3852371      0.0022687763   0.072746159    97.007515     -243.83408     -73852.371      51.529679      49.606858      53.842449    
     79100   301.89881      0.0791         7.3846009      0.0082699416   0.073382356   -404.05932      537.13465     -73846.009      51.556938      49.580769      53.847439    
     79200   302.5909       0.0792         7.4422684     -0.039858413    0.015714852    487.6541      -133.29555     -74422.684      51.504225      49.622271      53.852429    
     79300   300.88954      0.0793         7.4537718     -0.040357444    0.0042114733   437.25882     -268.578       -74537.718      51.526798      49.600164      53.857419    
     79400   296.10991      0.0794         7.3739036      0.040346068    0.08407963    -417.70314      821.55364     -73739.036      51.583352      49.544232      53.862409    
     79500   300.84616      0.0795         7.4357356     -0.014287394    0.022247635    638.70036     -482.18354     -74357.356      51.503801      49.628512      53.867399    
     79600   295.71437      0.0796         7.4548781     -0.031151266    0.0031051469  -17.695662      11.69779      -74548.781      51.528308      49.588412      53.872389    
     79700   299.91351      0.0797         7.466512      -0.040032606    0             -656.36267      73.613855     -74665.12       51.559504      49.575115      53.877379    
     79800   300.74409      0.0798         7.4402152     -0.010704641    0.026296737    704.58371     -445.88483     -74402.152      51.508173      49.613804      53.882369    
     79900   298.44073      0.0799         7.4993697     -0.065720429    0             -90.736403      203.96519     -74993.697      51.541745      49.586483      53.887359    
     80000   296.27511      0.08           7.4678871     -0.025972876    0.031482551   -298.76547      378.68655     -74678.871      51.561422      49.568094      53.892349    
     80100   296.54992      0.0801         7.4217783      0.0238537      0.077591388    207.52775     -1121.7279     -74217.783      51.499369      49.646414      53.897339    
     80200   298.30509      0.0802         7.4691498     -0.020829709    0.030219837   -1060.2124     -402.49071     -74691.498      51.578132      49.581343      53.902329    
     80300   299.0675       0.0803         7.5455018     -0.088008644    0             -814.35562     -995.46809     -75455.018      51.551163      49.607973      53.907319    
     80400   300.3803       0.0804         7.526679      -0.053908325    0.018822782   -1059.1197     -1561.5093     -75266.79       51.543559      49.622397      53.912309    
     80500   299.40157      0.0805         7.5158717     -0.035087402    0.029630101   -1555.4231     -461.6086      -75158.717      51.583003      49.577689      53.917299    
     80600   296.21021      0.0806         7.5255933     -0.037737478    0.01990851    -430.81634     -1372.1572     -75255.933      51.532009      49.631005      53.922289    
     80700   302.30586      0.0807         7.5421026     -0.046687706    0.0033992252  -1624.8946     -1771.1347     -75421.026      51.568493      49.610505      53.927279    
     80800   295.13316      0.0808         7.5123212     -0.0096957478   0.03318059    -1256.3553     -1025.1201     -75123.212      51.574991      49.587672      53.932269    
     80900   299.90518      0.0809         7.5560915     -0.047793891    0             -547.37687     -1586.5196     -75560.915      51.527115      49.629016      53.937259    
     81000   301.15282      0.081          7.5421138     -0.026393489    0.013977737   -1154.7825     -416.71908     -75421.138      51.572231      49.581809      53.94225     
     81100   301.52538      0.0811         7.5596656     -0.030156576    0             -314.50517     -1296.4738     -75596.656      51.509298      49.618314      53.94724     
     81200   301.68199      0.0812         7.5368777     -0.00059588861  0.022787903   -85.472938     -801.06254     -75368.777      51.529724      49.594898      53.95223     
     81300   305.70484      0.0813         7.5197428      0.01396311     0.039922799   -1005.9125      450.49195     -75197.428      51.571668      49.53964       53.95722     
     81400   295.55968      0.0814         7.5233586      0.010015303    0.036307036    532.11826     -244.64951     -75233.586      51.510556      49.588538      53.96221     
     81500   300.2006       0.0815         7.5324722      0.0025617101   0.02719339     371.84783      108.73058     -75324.722      51.51615       49.577137      53.9672      
     81600   299.89826      0.0816         7.5447231     -0.0077762307   0.014942463   -32.117789      380.66532     -75447.231      51.527453      49.566171      53.97219     
     81700   305.53815      0.0817         7.5348658      0.001357407    0.024799774    193.20213     -217.75988     -75348.658      51.514329      49.591069      53.97718     
     81800   300.35441      0.0818         7.5646449     -0.023189301    0             -78.524762      265.56766     -75646.449      51.540986      49.549957      53.98217     
     81900   299.44926      0.0819         7.5383419      0.0013387699   0.026303036   -78.4983        79.265824     -75383.419      51.51447       49.576241      53.98716     
     82000   304.72141      0.082          7.553054      -0.012279328    0.011590917    100.02618     -417.84881     -75530.54       51.503317      49.60028       53.99215     
     82100   301.14314      0.0821         7.5966418     -0.052169494    0              7.0827974      444.74312     -75966.418      51.537269      49.535287      53.99714     
     82200   296.3902       0.0822         7.5557495     -0.0093900563   0.040892256    714.55767      692.56889     -75557.495      51.503492      49.557599      54.00213     
     82300   302.15321      0.0823         7.527637       0.019511831    0.069004718    427.02223      865.26486     -75276.37       51.520394      49.542928      54.00712     
     82400   298.93335      0.0824         7.4943982      0.049854652    0.10224358     405.26088      998.27846     -74943.982      51.512346      49.542903      54.01211     
     82500   295.57217      0.0825         7.5259709      0.017631794    0.070670846    1078.3898      575.66958     -75259.709      51.476999      49.564664      54.0171      
     82600   301.54232      0.0826         7.5922542     -0.043898395    0.0043875491   343.95757      877.34164     -75922.542      51.509117      49.541042      54.02209     
     82700   303.25229      0.0827         7.5106589      0.035276242    0.085982879    231.31484      428.14096     -75106.589      51.513079      49.547607      54.02708     
     82800   297.91426      0.0828         7.5182436      0.023051367    0.078398131    258.72768      120.64379     -75182.436      51.508665      49.563777      54.03207     
     82900   300.03453      0.0829         7.5375935      0.0036266855   0.059048288    155.28122      78.475071     -75375.935      51.511484      49.546962      54.03706     
     83000   300.81625      0.083          7.4932629      0.041978157    0.10337887    -216.18846      14.332773     -74932.629      51.532315      49.518642      54.04205     
     83100   301.4997       0.0831         7.4102368      0.10636376     0.18640497     301.71847      12.988834     -74102.368      51.517839      49.506845      54.04704     
     83200   297.18991      0.0832         7.3243467      0.16911357     0.27229506    -3.0285614      778.66392     -73243.467      51.530453      49.449415      54.05203     
     83300   300.61329      0.0833         7.2210266      0.24177261     0.37561515     641.07099      8.5385562     -72210.266      51.497138      49.45161       54.05702     
     83400   298.40442      0.0834         7.0280761      0.38809095     0.56856569     899.54748      370.56633     -70280.761      51.478525      49.394344      54.06201     
     83500   304.68239      0.0835         6.7940489      0.54892591     0.80259285    -112.02372      827.4233      -67940.489      51.522236      49.29455       54.067       
     83600   305.49184      0.0836         6.5405315      0.69727101     1.0561102      943.50644      110.23587     -65405.315      51.444761      49.278387      54.07199     
     83700   304.93454      0.0837         6.2486812      0.86292359     1.3479606      568.08111      436.81892     -62486.812      51.436485      49.194135      54.07698     
     83800   307.57264      0.0838         5.8851789      1.0631194      1.7114629     -311.04312      946.67181     -58851.789      51.438275      49.083613      54.08197     
Fix halt condition for fix-id halt_peak_fix met on step 83900 with value 1
     83900   309.29064      0.0839         5.5243451      1.2226283      2.0722966      803.32232     -526.05644     -55243.451      51.332326      49.064597      54.08696     
Loop time of 539.494 on 1 procs for 83900 steps with 7560 atoms

Performance: 26.873 ns/day, 0.893 hours/ns, 155.516 timesteps/s, 1.176 Matom-step/s
110.8% CPU use with 1 MPI tasks x 1 OpenMP threads

MPI task timing breakdown:
Section |  min time  |  avg time  |  max time  |%varavg| %total
---------------------------------------------------------------
Pair    | 503.59     | 503.59     | 503.59     |   0.0 | 93.34
Neigh   | 5.7213     | 5.7213     | 5.7213     |   0.0 |  1.06
Comm    | 2.0412     | 2.0412     | 2.0412     |   0.0 |  0.38
Output  | 9.37       | 9.37       | 9.37       |   0.0 |  1.74
Modify  | 17.579     | 17.579     | 17.579     |   0.0 |  3.26
Other   |            | 1.194      |            |       |  0.22

Nlocal:           7560 ave        7560 max        7560 min
Histogram: 1 0 0 0 0 0 0 0 0 0
Nghost:           8806 ave        8806 max        8806 min
Histogram: 1 0 0 0 0 0 0 0 0 0
Neighs:         357920 ave      357920 max      357920 min
Histogram: 1 0 0 0 0 0 0 0 0 0
FullNghs:       708032 ave      708032 max      708032 min
Histogram: 1 0 0 0 0 0 0 0 0 0

Total # of neighbors = 708032
Ave neighs/atom = 93.655026
Neighbor list builds = 444
Dangerous builds = 0
Total wall time: 0:09:13
        7.3243467      0.16911357     0.27229506    -3.0285614      778.66392     -73243.467      51.530453      49.449415      54.05203     
     83300   300.61329      0.0833         7.2210266      0.24177261     0.37561515     641.07099      8.5385562     -72210.266      51.497138      49.45161       54.05702     
     83400   298.40442      0.0834         7.0280761      0.38809095     0.56856569     899.54748      370.56633     -70280.761      51.478525      49.394344      54.06201     
     83500   304.68239      0.0835         6.7940489      0.54892591     0.80259285    -112.02372      827.4233      -67940.489      51.522236      49.29455       54.067       
     83600   305.49184      0.0836         6.5405315      0.69727101     1.0561102      943.50644      110.23587     -65405.315      51.444761      49.278387      54.07199     
     83700   304.93454      0.0837         6.2486812      0.86292359     1.3479606      568.08111      436.81892     -62486.812      51.436485      49.194135      54.07698     
     83800   307.57264      0.0838         5.8851789      1.0631194      1.7114629     -311.04312      946.67181     -58851.789      51.438275      49.083613      54.08197     
Fix halt condition for fix-id halt_peak_fix met on step 83900 with value 1
     83900   309.29064      0.0839         5.5243451      1.2226283      2.0722966      803.32232     -526.05644     -55243.451      51.332326      49.064597      54.08696     
Loop time of 539.494 on 1 procs for 83900 steps with 7560 atoms

Performance: 26.873 ns/day, 0.893 hours/ns, 155.516 timesteps/s, 1.176 Matom-step/s
110.8% CPU use with 1 MPI tasks x 1 OpenMP threads

MPI task timing breakdown:
Section |  min time  |  avg time  |  max time  |%varavg| %total
---------------------------------------------------------------
Pair    | 503.59     | 503.59     | 503.59     |   0.0 | 93.34
Neigh   | 5.7213     | 5.7213     | 5.7213     |   0.0 |  1.06
Comm    | 2.0412     | 2.0412     | 2.0412     |   0.0 |  0.38
Output  | 9.37       | 9.37       | 9.37       |   0.0 |  1.74
Modify  | 17.579     | 17.579     | 17.579     |   0.0 |  3.26
Other   |            | 1.194      |            |       |  0.22

Nlocal:           7560 ave        7560 max        7560 min
Histogram: 1 0 0 0 0 0 0 0 0 0
Nghost:           8806 ave        8806 max        8806 min
Histogram: 1 0 0 0 0 0 0 0 0 0
Neighs:         357920 ave      357920 max      357920 min
Histogram: 1 0 0 0 0 0 0 0 0 0
FullNghs:       708032 ave      708032 max      708032 min
Histogram: 1 0 0 0 0 0 0 0 0 0

Total # of neighbors = 708032
Ave neighs/atom = 93.655026
Neighbor list builds = 444
Dangerous builds = 0
Total wall time: 0:09:13
