(written by ASE)

7776 atoms
1 atom types

0.0       52.05720123095363  xlo xhi
0.0      49.079999999999998  ylo yhi
0.0       52.05720123095363  zlo zhi

Atoms # atomic

     1   1      2.8920667350529792                       0 -7.9108757318134867e-17
     2   1      4.3381001025794683      2.0449999999999999      1.4460333675264894
     3   1                       0                       0                       0
     4   1      1.4460333675264896      2.0449999999999999      1.4460333675264896
     5   1 -7.9108757318134867e-17                       0      2.8920667350529792
     6   1      2.8920667350529792                       0      2.8920667350529792
     7   1      4.3381001025794683      2.0449999999999999      4.3381001025794683
     8   1      1.4460333675264894      2.0449999999999999      4.3381001025794683
     9   1      2.8920667350529787                       0      5.7841334701059584
    10   1      4.3381001025794683      2.0449999999999999      7.2301668376324475
    11   1 -1.5821751463626973e-16                       0      5.7841334701059584
    12   1      1.4460333675264894      2.0449999999999999      7.2301668376324475
    13   1  2.0676293789565801e-16                       0      8.6762002051589366
    14   1      2.8920667350529787                       0      8.6762002051589366
    15   1      4.3381001025794683      2.0449999999999999      10.122233572685428
    16   1      1.4460333675264898      2.0449999999999999      10.122233572685426
    17   1      2.8920667350529792                       0      11.568266940211917
    18   1      4.3381001025794683      2.0449999999999999      13.014300307738406
    19   1 -3.1643502927253947e-16                       0      11.568266940211917
    20   1      1.4460333675264891      2.0449999999999999      13.014300307738406
    21   1  4.8545423259388279e-17                       0      14.460333675264895
    22   1      2.8920667350529787                       0      14.460333675264895
    23   1      4.3381001025794683      2.0449999999999999      15.906367042791384
    24   1      1.4460333675264896      2.0449999999999999      15.906367042791384
    25   1      2.8920667350529792                       0      17.352400410317873
    26   1      4.3381001025794683      2.0449999999999999      18.798433777844362
    27   1  4.1352587579131603e-16                       0      17.352400410317873
    28   1        1.44603336752649      2.0449999999999999      18.798433777844362
    29   1  7.7850632832324378e-16                       0      20.244467145370852
    30   1      2.8920667350529796                       0      20.244467145370852
    31   1      4.3381001025794701      2.0449999999999999      21.690500512897344
    32   1      1.4460333675264903      2.0449999999999999      21.690500512897341
    33   1       2.892066735052981                       0      23.136533880423833
    34   1      4.3381001025794692      2.0449999999999999      24.582567247950323
    35   1 -6.3287005854507894e-16                       0      23.136533880423833
    36   1        1.44603336752649      2.0449999999999999      24.582567247950323
    37   1 -7.8817247846638172e-16                       0      26.028600615476815
    38   1      2.8920667350529783                       0      26.028600615476812
    39   1      4.3381001025794665      2.0449999999999999      27.474633983003301
    40   1      1.4460333675264874      2.0449999999999999      27.474633983003304
    41   1      2.8920667350529756                       0       28.92066735052979
    42   1      4.3381001025794665      2.0449999999999999      30.366700718056283
    43   1  9.7090846518776557e-17                       0       28.92066735052979
    44   1      1.4460333675264883      2.0449999999999999      30.366700718056279
    45   1 -7.9400266789631563e-16                       0      31.812734085582768
    46   1      2.8920667350529792                       0      31.812734085582768
    47   1      4.3381001025794701      2.0449999999999999      33.258767453109257
    48   1        1.44603336752649      2.0449999999999999      33.258767453109257
    49   1       2.892066735052981                       0      34.704800820635747
    50   1      4.3381001025794692      2.0449999999999999      36.150834188162236
    51   1  8.2705175158263205e-16                       0      34.704800820635747
    52   1      1.4460333675264916      2.0449999999999999      36.150834188162236
    53   1 -1.1046075077389212e-15                       0      37.596867555688732
    54   1      2.8920667350529801                       0      37.596867555688725
    55   1      4.3381001025794683      2.0449999999999999      39.042900923215214
    56   1      1.4460333675264871      2.0449999999999999      39.042900923215221
    57   1      2.8920667350529752                       0       40.48893429074171
    58   1      4.3381001025794665      2.0449999999999999      41.934967658268199
    59   1  1.5570126566464876e-15                       0      40.488934290741703
    60   1      1.4460333675264898      2.0449999999999999      41.934967658268192
    61   1  6.6591914223139536e-16                       0      43.381001025794681
    62   1      2.8920667350529805                       0      43.381001025794681
    63   1       4.338100102579471      2.0449999999999999      44.827034393321178
    64   1      1.4460333675264914      2.0449999999999999      44.827034393321171
    65   1      2.8920667350529823                       0      46.273067760847667
    66   1      4.3381001025794728      2.0449999999999999      47.719101128374156
    67   1 -1.2657401170901579e-15                       0      46.273067760847667
    68   1      1.4460333675264896      2.0449999999999999      47.719101128374156
    69   1   3.553143023887898e-16                       0      49.165134495900645
    70   1      2.8920667350529801                       0      49.165134495900645
    71   1      4.3381001025794657      2.0449999999999999      50.611167863427134
    72   1      1.4460333675264911      2.0449999999999999      50.611167863427134
    73   1      2.8920667350529792      4.0899999999999999 -7.9108757318134867e-17
    74   1      4.3381001025794683      6.1349999999999998      1.4460333675264894
    75   1                       0      4.0899999999999999                       0
    76   1      1.4460333675264896      6.1349999999999998      1.4460333675264896
    77   1 -7.9108757318134867e-17      4.0899999999999999      2.8920667350529792
    78   1      2.8920667350529792      4.0899999999999999      2.8920667350529792
    79   1      4.3381001025794683      6.1349999999999998      4.3381001025794683
    80   1      1.4460333675264894      6.1349999999999998      4.3381001025794683
    81   1      2.8920667350529787      4.0899999999999999      5.7841334701059584
    82   1      4.3381001025794683      6.1349999999999998      7.2301668376324475
    83   1 -1.5821751463626973e-16      4.0899999999999999      5.7841334701059584
    84   1      1.4460333675264894      6.1349999999999998      7.2301668376324475
    85   1  2.0676293789565801e-16      4.0899999999999999      8.6762002051589366
    86   1      2.8920667350529787      4.0899999999999999      8.6762002051589366
    87   1      4.3381001025794683      6.1349999999999998      10.122233572685428
    88   1      1.4460333675264898      6.1349999999999998      10.122233572685426
    89   1      2.8920667350529792      4.0899999999999999      11.568266940211917
    90   1      4.3381001025794683      6.1349999999999998      13.014300307738406
    91   1 -3.1643502927253947e-16      4.0899999999999999      11.568266940211917
    92   1      1.4460333675264891      6.1349999999999998      13.014300307738406
    93   1  4.8545423259388279e-17      4.0899999999999999      14.460333675264895
    94   1      2.8920667350529787      4.0899999999999999      14.460333675264895
    95   1      4.3381001025794683      6.1349999999999998      15.906367042791384
    96   1      1.4460333675264896      6.1349999999999998      15.906367042791384
    97   1      2.8920667350529792      4.0899999999999999      17.352400410317873
    98   1      4.3381001025794683      6.1349999999999998      18.798433777844362
    99   1  4.1352587579131603e-16      4.0899999999999999      17.352400410317873
   100   1        1.44603336752649      6.1349999999999998      18.798433777844362
   101   1  7.7850632832324378e-16      4.0899999999999999      20.244467145370852
   102   1      2.8920667350529796      4.0899999999999999      20.244467145370852
   103   1      4.3381001025794701      6.1349999999999998      21.690500512897344
   104   1      1.4460333675264903      6.1349999999999998      21.690500512897341
   105   1       2.892066735052981      4.0899999999999999      23.136533880423833
   106   1      4.3381001025794692      6.1349999999999998      24.582567247950323
   107   1 -6.3287005854507894e-16      4.0899999999999999      23.136533880423833
   108   1        1.44603336752649      6.1349999999999998      24.582567247950323
   109   1 -7.8817247846638172e-16      4.0899999999999999      26.028600615476815
   110   1      2.8920667350529783      4.0899999999999999      26.028600615476812
   111   1      4.3381001025794665      6.1349999999999998      27.474633983003301
   112   1      1.4460333675264874      6.1349999999999998      27.474633983003304
   113   1      2.8920667350529756      4.0899999999999999       28.92066735052979
   114   1      4.3381001025794665      6.1349999999999998      30.366700718056283
   115   1  9.7090846518776557e-17      4.0899999999999999       28.92066735052979
   116   1      1.4460333675264883      6.1349999999999998      30.366700718056279
   117   1 -7.9400266789631563e-16      4.0899999999999999      31.812734085582768
   118   1      2.8920667350529792      4.0899999999999999      31.812734085582768
   119   1      4.3381001025794701      6.1349999999999998      33.258767453109257
   120   1        1.44603336752649      6.1349999999999998      33.258767453109257
   121   1       2.892066735052981      4.0899999999999999      34.704800820635747
   122   1      4.3381001025794692      6.1349999999999998      36.150834188162236
   123   1  8.2705175158263205e-16      4.0899999999999999      34.704800820635747
   124   1      1.4460333675264916      6.1349999999999998      36.150834188162236
   125   1 -1.1046075077389212e-15      4.0899999999999999      37.596867555688732
   126   1      2.8920667350529801      4.0899999999999999      37.596867555688725
   127   1      4.3381001025794683      6.1349999999999998      39.042900923215214
   128   1      1.4460333675264871      6.1349999999999998      39.042900923215221
   129   1      2.8920667350529752      4.0899999999999999       40.48893429074171
   130   1      4.3381001025794665      6.1349999999999998      41.934967658268199
   131   1  1.5570126566464876e-15      4.0899999999999999      40.488934290741703
   132   1      1.4460333675264898      6.1349999999999998      41.934967658268192
   133   1  6.6591914223139536e-16      4.0899999999999999      43.381001025794681
   134   1      2.8920667350529805      4.0899999999999999      43.381001025794681
   135   1       4.338100102579471      6.1349999999999998      44.827034393321178
   136   1      1.4460333675264914      6.1349999999999998      44.827034393321171
   137   1      2.8920667350529823      4.0899999999999999      46.273067760847667
   138   1      4.3381001025794728      6.1349999999999998      47.719101128374156
   139   1 -1.2657401170901579e-15      4.0899999999999999      46.273067760847667
   140   1      1.4460333675264896      6.1349999999999998      47.719101128374156
   141   1   3.553143023887898e-16      4.0899999999999999      49.165134495900645
   142   1      2.8920667350529801      4.0899999999999999      49.165134495900645
   143   1      4.3381001025794657      6.1349999999999998      50.611167863427134
   144   1      1.4460333675264911      6.1349999999999998      50.611167863427134
   145   1      2.8920667350529792      8.1799999999999997 -7.9108757318134867e-17
   146   1      4.3381001025794683                  10.225      1.4460333675264894
   147   1                       0      8.1799999999999997                       0
   148   1      1.4460333675264896                  10.225      1.4460333675264896
   149   1 -7.9108757318134867e-17      8.1799999999999997      2.8920667350529792
   150   1      2.8920667350529792      8.1799999999999997      2.8920667350529792
   151   1      4.3381001025794683                  10.225      4.3381001025794683
   152   1      1.4460333675264894                  10.225      4.3381001025794683
   153   1      2.8920667350529787      8.1799999999999997      5.7841334701059584
   154   1      4.3381001025794683                  10.225      7.2301668376324475
   155   1 -1.5821751463626973e-16      8.1799999999999997      5.7841334701059584
   156   1      1.4460333675264894                  10.225      7.2301668376324475
   157   1  2.0676293789565801e-16      8.1799999999999997      8.6762002051589366
   158   1      2.8920667350529787      8.1799999999999997      8.6762002051589366
   159   1      4.3381001025794683                  10.225      10.122233572685428
   160   1      1.4460333675264898                  10.225      10.122233572685426
   161   1      2.8920667350529792      8.1799999999999997      11.568266940211917
   162   1      4.3381001025794683                  10.225      13.014300307738406
   163   1 -3.1643502927253947e-16      8.1799999999999997      11.568266940211917
   164   1      1.4460333675264891                  10.225      13.014300307738406
   165   1  4.8545423259388279e-17      8.1799999999999997      14.460333675264895
   166   1      2.8920667350529787      8.1799999999999997      14.460333675264895
   167   1      4.3381001025794683                  10.225      15.906367042791384
   168   1      1.4460333675264896                  10.225      15.906367042791384
   169   1      2.8920667350529792      8.1799999999999997      17.352400410317873
   170   1      4.3381001025794683                  10.225      18.798433777844362
   171   1  4.1352587579131603e-16      8.1799999999999997      17.352400410317873
   172   1        1.44603336752649                  10.225      18.798433777844362
   173   1  7.7850632832324378e-16      8.1799999999999997      20.244467145370852
   174   1      2.8920667350529796      8.1799999999999997      20.244467145370852
   175   1      4.3381001025794701                  10.225      21.690500512897344
   176   1      1.4460333675264903                  10.225      21.690500512897341
   177   1       2.892066735052981      8.1799999999999997      23.136533880423833
   178   1      4.3381001025794692                  10.225      24.582567247950323
   179   1 -6.3287005854507894e-16      8.1799999999999997      23.136533880423833
   180   1        1.44603336752649                  10.225      24.582567247950323
   181   1 -7.8817247846638172e-16      8.1799999999999997      26.028600615476815
   182   1      2.8920667350529783      8.1799999999999997      26.028600615476812
   183   1      4.3381001025794665                  10.225      27.474633983003301
   184   1      1.4460333675264874                  10.225      27.474633983003304
   185   1      2.8920667350529756      8.1799999999999997       28.92066735052979
   186   1      4.3381001025794665                  10.225      30.366700718056283
   187   1  9.7090846518776557e-17      8.1799999999999997       28.92066735052979
   188   1      1.4460333675264883                  10.225      30.366700718056279
   189   1 -7.9400266789631563e-16      8.1799999999999997      31.812734085582768
   190   1      2.8920667350529792      8.1799999999999997      31.812734085582768
   191   1      4.3381001025794701                  10.225      33.258767453109257
   192   1        1.44603336752649                  10.225      33.258767453109257
   193   1       2.892066735052981      8.1799999999999997      34.704800820635747
   194   1      4.3381001025794692                  10.225      36.150834188162236
   195   1  8.2705175158263205e-16      8.1799999999999997      34.704800820635747
   196   1      1.4460333675264916                  10.225      36.150834188162236
   197   1 -1.1046075077389212e-15      8.1799999999999997      37.596867555688732
   198   1      2.8920667350529801      8.1799999999999997      37.596867555688725
   199   1      4.3381001025794683                  10.225      39.042900923215214
   200   1      1.4460333675264871                  10.225      39.042900923215221
   201   1      2.8920667350529752      8.1799999999999997       40.48893429074171
   202   1      4.3381001025794665                  10.225      41.934967658268199
   203   1  1.5570126566464876e-15      8.1799999999999997      40.488934290741703
   204   1      1.4460333675264898                  10.225      41.934967658268192
   205   1  6.6591914223139536e-16      8.1799999999999997      43.381001025794681
   206   1      2.8920667350529805      8.1799999999999997      43.381001025794681
   207   1       4.338100102579471                  10.225      44.827034393321178
   208   1      1.4460333675264914                  10.225      44.827034393321171
   209   1      2.8920667350529823      8.1799999999999997      46.273067760847667
   210   1      4.3381001025794728                  10.225      47.719101128374156
   211   1 -1.2657401170901579e-15      8.1799999999999997      46.273067760847667
   212   1      1.4460333675264896                  10.225      47.719101128374156
   213   1   3.553143023887898e-16      8.1799999999999997      49.165134495900645
   214   1      2.8920667350529801      8.1799999999999997      49.165134495900645
   215   1      4.3381001025794657                  10.225      50.611167863427134
   216   1      1.4460333675264911                  10.225      50.611167863427134
   217   1      2.8920667350529792                   12.27 -7.9108757318134867e-17
   218   1      4.3381001025794683                  14.315      1.4460333675264894
   219   1                       0                   12.27                       0
   220   1      1.4460333675264896                  14.315      1.4460333675264896
   221   1 -7.9108757318134867e-17                   12.27      2.8920667350529792
   222   1      2.8920667350529792                   12.27      2.8920667350529792
   223   1      4.3381001025794683                  14.315      4.3381001025794683
   224   1      1.4460333675264894                  14.315      4.3381001025794683
   225   1      2.8920667350529787                   12.27      5.7841334701059584
   226   1      4.3381001025794683                  14.315      7.2301668376324475
   227   1 -1.5821751463626973e-16                   12.27      5.7841334701059584
   228   1      1.4460333675264894                  14.315      7.2301668376324475
   229   1  2.0676293789565801e-16                   12.27      8.6762002051589366
   230   1      2.8920667350529787                   12.27      8.6762002051589366
   231   1      4.3381001025794683                  14.315      10.122233572685428
   232   1      1.4460333675264898                  14.315      10.122233572685426
   233   1      2.8920667350529792                   12.27      11.568266940211917
   234   1      4.3381001025794683                  14.315      13.014300307738406
   235   1 -3.1643502927253947e-16                   12.27      11.568266940211917
   236   1      1.4460333675264891                  14.315      13.014300307738406
   237   1  4.8545423259388279e-17                   12.27      14.460333675264895
   238   1      2.8920667350529787                   12.27      14.460333675264895
   239   1      4.3381001025794683                  14.315      15.906367042791384
   240   1      1.4460333675264896                  14.315      15.906367042791384
   241   1      2.8920667350529792                   12.27      17.352400410317873
   242   1      4.3381001025794683                  14.315      18.798433777844362
   243   1  4.1352587579131603e-16                   12.27      17.352400410317873
   244   1        1.44603336752649                  14.315      18.798433777844362
   245   1  7.7850632832324378e-16                   12.27      20.244467145370852
   246   1      2.8920667350529796                   12.27      20.244467145370852
   247   1      4.3381001025794701                  14.315      21.690500512897344
   248   1      1.4460333675264903                  14.315      21.690500512897341
   249   1       2.892066735052981                   12.27      23.136533880423833
   250   1      4.3381001025794692                  14.315      24.582567247950323
   251   1 -6.3287005854507894e-16                   12.27      23.136533880423833
   252   1        1.44603336752649                  14.315      24.582567247950323
   253   1 -7.8817247846638172e-16                   12.27      26.028600615476815
   254   1      2.8920667350529783                   12.27      26.028600615476812
   255   1      4.3381001025794665                  14.315      27.474633983003301
   256   1      1.4460333675264874                  14.315      27.474633983003304
   257   1      2.8920667350529756                   12.27       28.92066735052979
   258   1      4.3381001025794665                  14.315      30.366700718056283
   259   1  9.7090846518776557e-17                   12.27       28.92066735052979
   260   1      1.4460333675264883                  14.315      30.366700718056279
   261   1 -7.9400266789631563e-16                   12.27      31.812734085582768
   262   1      2.8920667350529792                   12.27      31.812734085582768
   263   1      4.3381001025794701                  14.315      33.258767453109257
   264   1        1.44603336752649                  14.315      33.258767453109257
   265   1       2.892066735052981                   12.27      34.704800820635747
   266   1      4.3381001025794692                  14.315      36.150834188162236
   267   1  8.2705175158263205e-16                   12.27      34.704800820635747
   268   1      1.4460333675264916                  14.315      36.150834188162236
   269   1 -1.1046075077389212e-15                   12.27      37.596867555688732
   270   1      2.8920667350529801                   12.27      37.596867555688725
   271   1      4.3381001025794683                  14.315      39.042900923215214
   272   1      1.4460333675264871                  14.315      39.042900923215221
   273   1      2.8920667350529752                   12.27       40.48893429074171
   274   1      4.3381001025794665                  14.315      41.934967658268199
   275   1  1.5570126566464876e-15                   12.27      40.488934290741703
   276   1      1.4460333675264898                  14.315      41.934967658268192
   277   1  6.6591914223139536e-16                   12.27      43.381001025794681
   278   1      2.8920667350529805                   12.27      43.381001025794681
   279   1       4.338100102579471                  14.315      44.827034393321178
   280   1      1.4460333675264914                  14.315      44.827034393321171
   281   1      2.8920667350529823                   12.27      46.273067760847667
   282   1      4.3381001025794728                  14.315      47.719101128374156
   283   1 -1.2657401170901579e-15                   12.27      46.273067760847667
   284   1      1.4460333675264896                  14.315      47.719101128374156
   285   1   3.553143023887898e-16                   12.27      49.165134495900645
   286   1      2.8920667350529801                   12.27      49.165134495900645
   287   1      4.3381001025794657                  14.315      50.611167863427134
   288   1      1.4460333675264911                  14.315      50.611167863427134
   289   1      2.8920667350529792      16.359999999999999 -7.9108757318134867e-17
   290   1      4.3381001025794683      18.405000000000001      1.4460333675264894
   291   1                       0      16.359999999999999                       0
   292   1      1.4460333675264896      18.405000000000001      1.4460333675264896
   293   1 -7.9108757318134867e-17      16.359999999999999      2.8920667350529792
   294   1      2.8920667350529792      16.359999999999999      2.8920667350529792
   295   1      4.3381001025794683      18.405000000000001      4.3381001025794683
   296   1      1.4460333675264894      18.405000000000001      4.3381001025794683
   297   1      2.8920667350529787      16.359999999999999      5.7841334701059584
   298   1      4.3381001025794683      18.405000000000001      7.2301668376324475
   299   1 -1.5821751463626973e-16      16.359999999999999      5.7841334701059584
   300   1      1.4460333675264894      18.405000000000001      7.2301668376324475
   301   1  2.0676293789565801e-16      16.359999999999999      8.6762002051589366
   302   1      2.8920667350529787      16.359999999999999      8.6762002051589366
   303   1      4.3381001025794683      18.405000000000001      10.122233572685428
   304   1      1.4460333675264898      18.405000000000001      10.122233572685426
   305   1      2.8920667350529792      16.359999999999999      11.568266940211917
   306   1      4.3381001025794683      18.405000000000001      13.014300307738406
   307   1 -3.1643502927253947e-16      16.359999999999999      11.568266940211917
   308   1      1.4460333675264891      18.405000000000001      13.014300307738406
   309   1  4.8545423259388279e-17      16.359999999999999      14.460333675264895
   310   1      2.8920667350529787      16.359999999999999      14.460333675264895
   311   1      4.3381001025794683      18.405000000000001      15.906367042791384
   312   1      1.4460333675264896      18.405000000000001      15.906367042791384
   313   1      2.8920667350529792      16.359999999999999      17.352400410317873
   314   1      4.3381001025794683      18.405000000000001      18.798433777844362
   315   1  4.1352587579131603e-16      16.359999999999999      17.352400410317873
   316   1        1.44603336752649      18.405000000000001      18.798433777844362
   317   1  7.7850632832324378e-16      16.359999999999999      20.244467145370852
   318   1      2.8920667350529796      16.359999999999999      20.244467145370852
   319   1      4.3381001025794701      18.405000000000001      21.690500512897344
   320   1      1.4460333675264903      18.405000000000001      21.690500512897341
   321   1       2.892066735052981      16.359999999999999      23.136533880423833
   322   1      4.3381001025794692      18.405000000000001      24.582567247950323
   323   1 -6.3287005854507894e-16      16.359999999999999      23.136533880423833
   324   1        1.44603336752649      18.405000000000001      24.582567247950323
   325   1 -7.8817247846638172e-16      16.359999999999999      26.028600615476815
   326   1      2.8920667350529783      16.359999999999999      26.028600615476812
   327   1      4.3381001025794665      18.405000000000001      27.474633983003301
   328   1      1.4460333675264874      18.405000000000001      27.474633983003304
   329   1      2.8920667350529756      16.359999999999999       28.92066735052979
   330   1      4.3381001025794665      18.405000000000001      30.366700718056283
   331   1  9.7090846518776557e-17      16.359999999999999       28.92066735052979
   332   1      1.4460333675264883      18.405000000000001      30.366700718056279
   333   1 -7.9400266789631563e-16      16.359999999999999      31.812734085582768
   334   1      2.8920667350529792      16.359999999999999      31.812734085582768
   335   1      4.3381001025794701      18.405000000000001      33.258767453109257
   336   1        1.44603336752649      18.405000000000001      33.258767453109257
   337   1       2.892066735052981      16.359999999999999      34.704800820635747
   338   1      4.3381001025794692      18.405000000000001      36.150834188162236
   339   1  8.2705175158263205e-16      16.359999999999999      34.704800820635747
   340   1      1.4460333675264916      18.405000000000001      36.150834188162236
   341   1 -1.1046075077389212e-15      16.359999999999999      37.596867555688732
   342   1      2.8920667350529801      16.359999999999999      37.596867555688725
   343   1      4.3381001025794683      18.405000000000001      39.042900923215214
   344   1      1.4460333675264871      18.405000000000001      39.042900923215221
   345   1      2.8920667350529752      16.359999999999999       40.48893429074171
   346   1      4.3381001025794665      18.405000000000001      41.934967658268199
   347   1  1.5570126566464876e-15      16.359999999999999      40.488934290741703
   348   1      1.4460333675264898      18.405000000000001      41.934967658268192
   349   1  6.6591914223139536e-16      16.359999999999999      43.381001025794681
   350   1      2.8920667350529805      16.359999999999999      43.381001025794681
   351   1       4.338100102579471      18.405000000000001      44.827034393321178
   352   1      1.4460333675264914      18.405000000000001      44.827034393321171
   353   1      2.8920667350529823      16.359999999999999      46.273067760847667
   354   1      4.3381001025794728      18.405000000000001      47.719101128374156
   355   1 -1.2657401170901579e-15      16.359999999999999      46.273067760847667
   356   1      1.4460333675264896      18.405000000000001      47.719101128374156
   357   1   3.553143023887898e-16      16.359999999999999      49.165134495900645
   358   1      2.8920667350529801      16.359999999999999      49.165134495900645
   359   1      4.3381001025794657      18.405000000000001      50.611167863427134