(written by ASE)

4236 atoms
2 atom types

0.0      31.066736431430968  xlo xhi
0.0       30.35530163744053  ylo yhi
0.0      63.738505687459494  zlo zhi

Atoms # atomic

     1   1    0.032207842183893443   -0.026114397082210875      33.643610603749451
     2   1      1.4116604337775431      2.6244351101731844      33.693978933129934
     3   1      1.3374107373135578     0.83487915114277012      36.016730553932177
     4   1   -0.047299804233597996      3.4430764051839158      36.083825015451723
     5   1  -0.0085907854921232277      1.6182769833578938      38.420545720885841
     6   1      1.4420529222569847      4.1500876289724316      38.377810536157803
     7   1   -0.060650655509563736   -0.083306950683626882      40.643241870190657
     8   1      1.3329805293789063      2.4545509535385026      40.718756983740953
     9   1         1.4766793992706     0.81370394296885007      43.085500888543848
    10   1    0.069779511599293298      3.3360789569904901      43.058637931080689
    11   1   -0.030902073867092584      1.7136889904471893      45.353868813892731
    12   1      1.3409147240245727      4.2903152911040632      45.336570760331476
    13   1   -0.021425264649607111   -0.011062147314266314      47.676213424518124
    14   1      1.4683437864308471      2.5296838545396958       47.73383434333919
    15   1      1.4308693608197753     0.86241789258128687      50.067643022295776
    16   1   -0.023147085876999204       3.328448078576518      50.003577718434805
    17   1   -0.011784135827837274      1.6740921963234068      52.405429930688804
    18   1      1.4331294830447452      4.1928175032724457      52.476775893265234
    19   1    0.042868006153169234    0.023431753262747497      54.724856506921348
    20   1      1.4701531697146684      2.4936547242445957      54.760266413588667
    21   1      1.4181604523319995     0.80252385915548408      56.990179854493995
    22   1     0.01284400262801348      3.3353373022894695      57.092758803649765
    23   1   -0.072160935054516623      1.7169390676937903      59.389897833632055
    24   1      1.4454642604339547      4.2634262039865867      59.488511464968553
    25   1   -0.021986014560436015    0.012635616363309574      61.693944870126529
    26   1      1.4626247853213856      2.5563185093464944      61.707400857176019
    27   1     0.10834175492014045      5.0677161179792538      33.694724110277946
    28   1      1.3059178284304491      7.5516478096641375      33.613521845915635
    29   1      1.3995466210883003      5.8104776251773789      35.988864424872823
    30   1    0.014275781756046864      8.4466774637385491      36.056517431682444
    31   1    0.029377608395351858      6.7527826348131121      38.342535083607686
    32   1       1.473997239535531      9.2777183163283432      38.407105705152738
    33   1    0.080447971221261461      5.1630170327697265      40.672410169882859
    34   1      1.4318261099818494      7.5554091363819076      40.686431985534711
    35   1      1.3167772647104294      5.9094581945150688      43.045011283358399
    36   1   -0.032010728586387462      8.4452654560854317      42.973685659197344
    37   1    0.015937649658741306      6.7572645821920103      45.401420129019819
    38   1      1.4174047377627237      9.2904169298794788      45.322962357338398
    39   1    0.012802393781228816      5.1023412235717531      47.686003458959725
    40   1      1.3963548847630463      7.6330816304876841       47.68639268308717
    41   1      1.2997564411645421      5.8292382453219584      50.130296046267048
    42   1     -0.0978859749232589      8.3706270749453999      49.969967674218168
    43   1    0.015755534287562028      6.6797817090798617      52.466517894533553
    44   1      1.3852869155143637      9.2641597135143936      52.313513715091801
    45   1   -0.073031875749422576      5.0046134510087095      54.660004538416779
    46   1      1.4435989940670693      7.5028287772261688      54.743402285615844
    47   1      1.4069213668189917      5.9325530304242386      56.930392995904548
    48   1   0.0091043014949797659       8.475979747431456      57.061549422603825
    49   1   -0.021430349477974987      6.6806122541395103      59.332760134167742
    50   1      1.4383095352455133      9.3034423550387171      59.396207930381053
    51   1   -0.027968214471675641      5.0292949443820651      61.701376091549321
    52   1        1.41516863388676      7.6101128740066493      61.797577895637652
    53   1    0.088792478268643393      10.145759805676892      33.676192353396438
    54   1      1.4282433807007506      12.638576425679364      33.693952618962278
    55   1      1.4268145691192606      10.898340043501772      36.079510570972289
    56   1   -0.010134895892379609      13.494091810646282       36.04865302103623
    57   1  -0.0040969301992384603       11.85968052623361      38.358925983155906
    58   1      1.4183565988276623      14.337593521702598      38.405658669966883
    59   1   -0.013642827964860127      10.104997989028332      40.708381468601459
    60   1      1.2995463684259323      12.624879020897675      40.703967163674896
    61   1      1.4514320880186409       10.99324111985397      43.100706732799992
    62   1  -0.0023394571057324441      13.520250672407041      42.997544680456585
    63   1    0.052343694894245507       11.75357232986658      45.346028231856451
    64   1      1.4052339692614459      14.325323888594966      45.391919991418575
    65   1    0.055622136372259816      10.199135216939254      47.720714370784791
    66   1       1.383711787948851      12.647880906518877      47.692808822154511
    67   1      1.3115218633316523      10.897955448587467      50.023802050952412
    68   1    0.077251172671518889      13.505149297400274      50.110687121392452
    69   1    0.024447109106641621      11.762191840783954      52.394972242646311
    70   1      1.3424085533254062      14.329863842221512      52.465973770951607
    71   1   -0.060081529802640921      10.103864667078636      54.651198029720454
    72   1      1.3463809978309671      12.655932542085679       54.65668127353598
    73   1      1.4189813307584955      11.025240808001284      57.153473440408732
    74   1    -0.02429531828367101       13.47175276352514      56.980501698187567
    75   1  -0.0034059983305282705      11.811883659745607      59.466338926661962
    76   1      1.3510988415997662      14.385047847709943      59.412365956960024
    77   1    -0.13452995097636603      10.117552696396753      61.684719021937134
    78   1      1.3496575936560635      12.651465020617186      61.641848730122462
    79   1      0.0109131061912595      15.166269720136217      33.647188732951889
    80   1      1.3959048043038633      17.698551247020436      33.580272209777327
    81   1       1.415107084906067       16.11687083422802      36.005933468509511
    82   1    0.085164272093156621      18.526608651801652      36.041498423380716
    83   1   -0.032000027766005808      16.833679521798011      38.364166641818009
    84   1       1.396366092575428      19.356509140205965      38.302632791625015
    85   1   -0.030088773491596599      15.161508237940062      40.683111851067281
    86   1      1.3993115022588545      17.722884217129113      40.736095665676544
    87   1      1.4675598165613513      15.977149947927085      42.962724441288792
    88   1    0.038304294035190138      18.522107808321902      42.931164107637748
    89   1   -0.028300703139655693      16.893302358405325      45.419080934046022
    90   1      1.3433003748392216      19.452808718166978      45.312354261821355
    91   1    0.006842193234898231      15.097246941385304      47.629459276923171
    92   1      1.3506895186161612      17.642174673008295      47.698296974847409
    93   1      1.3728430738885018      15.995140525412786      50.025761794345534
    94   1    0.082125362311551112      18.518093960828015      50.014174841777496
    95   1    0.034200520716311446      16.746443369073354      52.278253561748031
    96   1       1.408930090139549      19.304760207290819      52.418866603496362
    97   1   -0.042566568020167735       15.23849025968731      54.750021801237395
    98   1      1.3896677573459981      17.640691691341985      54.746322645933674
    99   1      1.3165111396787483      16.027878293929387      56.977249403134998
   100   1    0.016749552152376501      18.573396869210587      56.974559772392546
   101   1   -0.043214448709462332       16.83215724991695      59.472974192346378
   102   1      1.5106476992429163      19.384349776780393      59.381550067025508
   103   1    0.057400434457955757      15.171244424412558      61.879124744720855
   104   1      1.4407369016791494      17.690368884188072      61.738664240670367
   105   1    0.030057082617907845      20.197055309737916      33.683872252340947
   106   1      1.3977020932187167       22.76533847079082      33.666261276051216
   107   1      1.4726258110162262      21.035842644191867      36.036501063445698
   108   1   0.0068158795310641219      23.575051129921931      36.056876558595889
   109   1   -0.017317474940631249      21.851402207666258      38.360004735769373
   110   1      1.4470704085757227      24.419952807214589      38.365632167051153
   111   1   0.0052070226640295566      20.271397686960007       40.71565678598455
   112   1      1.4074220398874511      22.858529365191526      40.655191582610357
   113   1      1.3892080632822801      21.097394841484348      43.057854162431134
   114   1  -0.0033529501560236666      23.633018182630327      42.969089547864421
   115   1     0.04137265912304991      21.873566932647741      45.444627775376226
   116   1      1.4056022254528198      24.453250389200065      45.366129693903005
   117   1   0.0061727002683902568      20.205907348707839      47.677314048856644
   118   1      1.3836061900327155      22.757646736486098      47.681730557329658
   119   1      1.4602606084730003      21.082019778147139      49.978870064920976
   120   1    0.015005868663513026      23.572286947543656      50.064779518971022
   121   1    0.079838884759604045      21.933416853883379      52.476683559957969
   122   1      1.4776704070317386      24.469291504851363      52.358115333731668
   123   1   -0.062303875147946525      20.255474824848246      54.705266679147535
   124   1      1.4200300232043574      22.784653502938323      54.755706514724366
   125   1      1.4356000500245385      21.130168979276789      56.979724419489443
   126   1   0.0022035800841600462      23.546057762125322      57.027205631320442
   127   1     0.01329295744006841      21.904617885777167      59.354003305545184
   128   1      1.3629625312134124      24.491806969558791      59.345965560776179
   129   1    0.035712831271121376      20.289048647663691      61.859722316400862
   130   1      1.4419815010788442       22.81767487521336      61.748828045014918
   131   1  -0.0093254563392305891      25.258954079754659      33.716530020383885
   132   1      1.3970706194563918      27.850803522371884      33.677551000752942
   133   1      1.4544609520334575      26.227419979220862      35.934224298146987
   134   1    0.024733283379244835      28.724411370211548      36.038094915913696
   135   1   0.0083126720488848546      26.992912829444709      38.250267719548731
   136   1      1.3965486650252787      29.468300244447612      38.306032966647642
   137   1    0.087410576900720072      25.282492613468058      40.684845801471681
   138   1      1.3930720025507417      27.829162409316769      40.787302852121655
   139   1      1.4934809676013547      26.123594403152286      43.095469915350151
   140   1    0.032843741071980521      28.675678042760428      43.085890897245129
   141   1   -0.020682346193577485      27.004613799853441      45.445865350340917
   142   1      1.3671276073715515      29.499548381033112      45.349029317581888
   143   1   -0.053829722283165363      25.346593955660424      47.689201473290915
   144   1      1.4201763214477021      27.825938033600139      47.720376862050578
   145   1         1.3366810226368       26.17780288743813      50.052520100691481
   146   1    -0.04540448936796599      28.682983369203534       50.01562158804029
   147   1    0.038751897798754015      26.905136428349248      52.379868835839432
   148   1      1.4616659678795312      29.490160155524425      52.391230915610215
   149   1   -0.019364923018229549      25.297095792377096       54.76929774808508
   150   1      1.2888167126532388      27.819076049485943      54.666280301130932
   151   1      1.3333969235092353      26.147007295744437      57.103659666539357
   152   1    0.040903979015911418      28.586707534162183      57.006827520560421
   153   1   -0.038724613216001562      26.959069062107623      59.377310304583865
   154   1      1.4298898161809945       29.52616104698529      59.319953103939419
   155   1   -0.082648264494294355      25.201083323102168      61.707963210085737
   156   1       1.408829252067664      27.840773049111082      61.860760676751816
   157   1      2.7748659442350831   -0.044255112670409213      33.621384753322019
   158   1      4.3118831100283526      2.5031070483661337      33.707696400965155
   159   1      4.2743171600451797     0.79756012417195599      36.122081827069735
   160   1      2.8284737627560257      3.3818489853291265       36.05453179366544
   161   1      2.8369353052758686      1.6988254555063131      38.340216054536917
   162   1       4.211266270649106      4.2928569496793383      38.362344770793982
   163   1      2.7885498871303449   -0.077396559358057712      40.813825131170319
   164   1       4.267069723338925      2.4120659107690541      40.775523586563168
   165   1      4.2377843871549103     0.83113650204831957      43.037781215763026
   166   1      2.8002722583355339      3.3684096187079526      42.974873500412826
   167   1      2.8592934067981641       1.710084300156314      45.310595443463413
   168   1      4.2480884250635196      4.2219210681205546      45.368338414813444
   169   1      2.7604747579053472   -0.025372088293181633       47.72510118252324
   170   1      4.2723452579416819      2.5181154305821085      47.781796567086488
   171   1      4.1616817340289201     0.79124823713761205      50.057778602310805
   172   1      2.8552049987031367      3.3756334367017407      50.024197706850792
   173   1      2.8750383295934676      1.6922761188794468      52.510568099955883
   174   1      4.2844675759798756      4.1457311601664104      52.410145937496502
   175   1      2.8248518588800922   -0.088792593139667905      54.767211789036693
   176   1      4.2905411614861011        2.54711715548147      54.683162919793418
   177   1      4.2090092047190968     0.90552590459653548      57.078603050763491
   178   1      2.7890047836553982      3.4284345399613416      57.053073322511011
   179   1      2.8169476122198867      1.7023612501150731      59.452865642157228
   180   1      4.2554578241405947      4.2680274283880344      59.413942128962105
   181   1      2.8345337203561876    0.051254615520356255      61.635442852114494
   182   1      4.2502691090088272      2.5296287444517249      61.797032859825777
   183   1       2.859603205517149      4.9923471094582048      33.645672555540621
   184   1      4.2643234668025398       7.551871711265699       33.74482452454852
   185   1      4.2546156658589247      5.9114142926484474      36.022310930834308
   186   1       2.808534238511549      8.5422663478265921      35.970364943152454
   187   1       2.756247175066473      6.7963660186500272      38.413140939011789
   188   1      4.3319394414634704      9.2185033953164357      38.353013864302149
   189   1      2.7195796722296937       4.965835567205322      40.687617341398763
   190   1      4.3399373941842683      7.6296932544757663      40.779918086865038
   191   1      4.1600110523373539      5.8865531188388731      42.975556378352877
   192   1      2.8000082374539104      8.4131882013013364      42.939208738061375
   193   1      2.8612583226518971      6.6346337997539573      45.331352978529878
   194   1      4.3278505215200029      9.2323961326079615      45.387208694875774
   195   1      2.7803204878919496      5.0385101007998792      47.743007489948276
   196   1      4.2610413510310403      7.5895796649204383       47.67524374636271
   197   1      4.2987564342615485       5.861271052345983      50.015814953559158
   198   1      2.8365677658967114      8.4475869179385814      50.062226084992318
   199   1      2.7757257915825333      6.7372138873334926      52.363892823186596
   200   1      4.2440595122486968      9.4013328244196686      52.288084777272267
   201   1      2.8494593252177207      5.0260255412012134      54.746416551697216
   202   1      4.1982056460322772       7.681133603329517      54.791629089641305
   203   1      4.2584417778025889       5.858304009417842      57.119331204312019
   204   1      2.8836523331375492      8.5062449542952692      57.052119667009961
   205   1      2.8467461342090328      6.7109239802178022      59.401815152628096
   206   1      4.2721356400363746      9.2588210383951068      59.319879454429973
   207   1      2.7610793358370103      5.0404880142487816      61.813404474427145
   208   1      4.2668259527745525      7.5715079740154021      61.771903077300045
   209   1      2.8658162114493564      10.118414144632904      33.714851886870193
   210   1      4.2884919122521046      12.675009161418162      33.670031178087491
   211   1      4.2156478587054016      11.035832584958783      36.032299810791507
   212   1       2.905480912560038      13.457117153297858      36.045710304898421
   213   1      2.9817437335705175      11.861885073872354      38.299756635980486
   214   1       4.241823098617842      14.331553122511579      38.490328287605394
   215   1      2.8156393070194827      10.158646805581171      40.735938406400642
   216   1      4.2636099343713791      12.649449010911223      40.685296077145274
   217   1      4.2850240791474237      11.002225653350921      42.979442033112605
   218   1      2.8103485979098841      13.477117523831959      43.035017222771728
   219   1      2.8082642230437935      11.787085427257381      45.388352454542442
   220   1      4.2528578158248482      14.383524375980674      45.345034199513627
   221   1      2.8872833074584427       10.15403313162621      47.683720690854329
   222   1       4.191619985172494       12.60572608891505      47.677914411154404
   223   1      4.2960778747891677      10.957978438063176      50.065054932834784
   224   1      2.8517450896784475      13.510669028934638      50.079076911517305
   225   1      2.8142142928049454      11.874461231495077      52.427022529319842
   226   1       4.247998152890136      14.382806382909047      52.403409094584198
   227   1      2.8645564746626104      10.109572321131632      54.741981420814518
   228   1      4.2464527989592584      12.719028228911927       54.69152119962817
   229   1       4.213520294337556      11.003625809481914      56.983222961878575
   230   1        2.84412541446242      13.499880000726566      57.036829573978139
   231   1      2.8085149486968168      11.812372585642709       59.32306602300855
   232   1      4.2829552733416376      14.303817991523838       59.34469681858868
   233   1        2.80267836762228      10.138291937793396       61.65082470103436
   234   1      4.2639122252318069      12.706885181399354      61.842354094299047
   235   1      2.8262882182449314      15.220975135508874      33.696629361635985
   236   1      4.2178930297905657      17.748002655369206      33.769304094908691
   237   1      4.2871717094737045      15.918570776334224      36.056108151340879
   238   1      2.8854199199093116      18.529043218222455      35.985249918591535
   239   1      2.8195378991716216      16.834191582420228      38.305029260782753
   240   1      4.2815132440740795      19.360165041886304      38.353046345202678
   241   1      2.8566953001374422       15.14120557127789      40.730653359624434
   242   1      4.1860619713708029      17.729201998193549       40.78128660863122
   243   1      4.2589000550210763      16.005345206743677      43.018746152802606
   244   1      2.7770323096896594      18.496175591138709      43.056742941901085
   245   1      2.8829472746476497      17.023828066132467      45.379469646100276
   246   1       4.302968954158346      19.436734018981571      45.246127915610295
   247   1      2.8076517005627788      15.158367579168566      47.701485688421542
   248   1      4.2867669687803902      17.746338883365066       47.69975031395029
   249   1      4.1897923136108721       16.00901912709984      50.080623769616807
   250   1       2.846096263138759      18.590141960137029      50.137697623975221
   251   1      2.8883219333166159      16.884821686001594       52.44057343476134
   252   1       4.258263038179793      19.490868342184065       52.41100966251097
   253   1      2.8360882665351683      15.194754382012826      54.679145278975355
   254   1      4.2933332648839517      17.698648180052082      54.658100584659145
   255   1      4.2429683854629525      15.930921436536698        57.0659127206523
   256   1      2.7808272317743334      18.511329868998885      57.073339172128755
   257   1      2.8083434606841222      16.890206480365077      59.391258313726937
   258   1      4.2316374061966666      19.421825179916851      59.428621938062406
   259   1      2.8249785250551156      15.165509351645373      61.640998999953055
   260   1      4.1162587860764548      17.698161682887996      61.645134000272542
   261   1       2.814302687045807      20.198982438092365      33.706419088150632
   262   1      4.2281346493189291      22.733201515970354      33.665876868069077
   263   1      4.2542002673227941      21.096022266778892       36.08327710600387
   264   1      2.8302747334842664      23.613074059901432      35.981789519133855
   265   1      2.8270218079292588      21.932310038999759      38.428949609979711
   266   1      4.2539306429825965       24.40810860069876      38.377506032513807
   267   1      2.9417286449865045      20.274911529842242      40.691323956659488
   268   1      4.1880317291848339       22.77898768353403      40.784498474616129
   269   1      4.2850061818544996      21.081117494863861      43.102972302915433
   270   1      2.8505937426355614      23.654436570278801       43.14719694747685
   271   1      2.7584361824786274      22.032386034268079      45.340235763462175
   272   1       4.273397189245931      24.453668357093139      45.353865490354757
   273   1      2.8824669627706561        20.2274460906043      47.650249076265098
   274   1      4.2195461384215003      22.700526463106566      47.662942882299575
   275   1      4.2543421007540472      21.047598225523874      50.099630532102623
   276   1      2.8567878298280225      23.552403769866718      49.998707761529118
   277   1      2.9491078093001302      21.932427288127521      52.350739321088518
   278   1      4.2711689444524579      24.376868511777221      52.391885832661551
   279   1      2.8279599593574862      20.261040488347724      54.734250352834913
   280   1      4.2518815120101783      22.742063982960278      54.798521065964039
   281   1      4.2815816317997761      21.032083579767065      57.092934962751478
   282   1      2.8053607892157486      23.590298456309249      57.098984089576852
   283   1       2.814533525195781      21.929514016436986      59.343774198618156
   284   1      4.2196831539058399       24.39142336075146      59.440549299093966
   285   1      2.7491647501261194      20.312974497414292      61.729818605581464
   286   1      4.2882472737165225      22.815682920412428      61.784306272766479
   287   1      2.8388442006587047      25.313422932505382      33.626356262343343
   288   1      4.3030511441933852      27.838006248229103      33.709472104863053
   289   1      4.2030816171836447      26.147043317554878      35.975126442647166
   290   1      2.8646254835117819        28.7232991135592      36.106085515605088
   291   1      2.8202771618416147      27.001675579458976      38.480506285930339
   292   1      4.2525869236517169      29.545260244468853      38.345105241927243
   293   1      2.7536053145930892      25.247018384763351      40.592258356894654
   294   1      4.2739514062345849      27.746418146099327      40.709736588764763
   295   1      4.2504081018989073      26.178738924751919      43.034202650067222
   296   1      2.8440826705408973      28.718743505801893      43.042052605199089
   297   1      2.7946178656861527      26.944932256378728      45.413954399670324
   298   1      4.2754527337318375      29.452797000815359      45.374502252624609
   299   1      2.8559685651967732      25.252623969466558      47.681078853254085
   300   1      4.2491861123293537      27.913575548431989      47.682922908640556
   301   1      4.3020911745987114      26.215653548961733      50.053483073511117
   302   1      2.8291047895273285       28.66248919437135      50.000181968238017
   303   1      2.7535286748381704      27.027298203168005        52.3966231073138
   304   1      4.1986047805396138      29.474296531193907      52.340439404218273
   305   1      2.9401849977637831      25.241979740212589      54.756845512850134
   306   1      4.1462593219021526      27.781764124377787      54.721829654299121
   307   1      4.2427509616787749      26.169285485863618      57.042470104932939
   308   1      2.7755053957358431      28.724274252192291      57.122191039822226
   309   1      2.8680137293059507      27.065375798449313      59.449653675179249
   310   1      4.3236208716220697      29.492400365172944      59.385301199164104
   311   1      2.6968528075121903      25.298091187985417      61.785485324718415
   312   1      4.2390530313026806      27.768015706373877      61.654400438118742
   313   1       5.640798167561881    0.031717578239083138      33.761570913355555
   314   1      7.1564067414808621      2.5705090121709895      33.724020680059965
   315   1      6.9782192966254328     0.86159456290382785       35.94520117420624
   316   1      5.6118092238213597      3.4055821189771578      35.997723893981629
   317   1      5.6401774893857564      1.6312243758770808      38.329291300293889
   318   1      7.0962291449996471      4.2520539708347123      38.286917139018563
   319   1      5.5994131433386505    0.050695159412611601      40.688036524231407
   320   1      6.9986451090813366      2.4965907082762051      40.769815459223771
   321   1      7.0622895849637537     0.83511604475607781      43.037766116134719
   322   1      5.7487486735699607      3.3942837972555759      42.981106841743987
   323   1      5.5987856397191189      1.6639476592988265      45.348853081038889
   324   1      7.1143619876598443      4.1507341579625345      45.391707942764725
   325   1       5.679578634656993    -0.08121000184038446      47.668048527518543
   326   1      7.0308254622078428      2.4797628204930193      47.738651628874443
   327   1      7.0748347364974578     0.82737808150802672      50.055545820327673
   328   1        5.68698000177507      3.3067558977370726      49.988324679725658
   329   1      5.7096962872887351      1.7925910565367875      52.369984887067893
   330   1      7.0319373598889481      4.2584444516061426       52.35476955635275
   331   1      5.5272229206980601    0.034739379238054077       54.73727736309732
   332   1      7.0847030367957018      2.5176379374936211      54.747517484207179
   333   1      6.9614297725026839     0.85081509257489196       56.97386337537101
   334   1      5.6982846583136535       3.289713504761214      57.091256450972544
   335   1      5.6925461782609243      1.8294084084897342      59.424608637380814
   336   1      7.0113639985358347      4.3370971864936783      59.392700796643815
   337   1      5.7237662798227698   -0.040741228246790835      61.674160331924845
   338   1      7.0770683480448255      2.5522385889493466       61.77068428200019
   339   1      5.5715455041760586      5.0075653787241166      33.723042901676529
   340   1      6.9901789077599146      7.7133952812250728      33.647554385614953
   341   1      7.0866930725174253      5.7810594339112011      36.095861257066993
   342   1      5.6347480582424954      8.4781109546725748      35.921705420630452
   343   1       5.642010198519916      6.7371133925134954      38.327772770353704
   344   1      7.0608289626880714      9.3284179890105587       38.37981289555465
   345   1      5.6730034199587092      5.0248782127145741      40.699594810956825
   346   1      7.0810582138432077      7.5998102340886966      40.678269131101288
   347   1      7.1155155998913591      5.9123567438172078      43.143303329677046
   348   1      5.6535715018906991      8.4328053223310242      43.022478656585072
   349   1       5.750364400899115      6.7773786043215072      45.365157468403844
   350   1      7.0574954975153981      9.2363756893879589      45.308872004789954
   351   1      5.6912756178808461      5.1106100678167934      47.691428478241555
   352   1       7.022824492278561      7.6059072418019262      47.696153078294202
   353   1      7.0461046690533875      5.9034741291826771      50.030243018570424
   354   1       5.613481609275734      8.4156318267451979      50.026515355672309
   355   1      5.6418059871600938      6.7210555767830602      52.353977960569004
   356   1      6.9894110653704846       9.224358229788761       52.36359299401051
   357   1      5.5353442461570221       5.091741716082856      54.649579739566427
   358   1      7.0396978583717136      7.6415985981123722      54.738134098956436
   359   1      6.9886320036670284      5.8971876780656132      57.090749217906215