LAMMPS (10 Dec 2025)
OMP_NUM_THREADS environment is not set. Defaulting to 1 thread.
  using 1 OpenMP thread(s) per MPI task
units metal
boundary p p s
atom_style atomic
timestep 0.002
read_data data.interface
Reading data file ...
  orthogonal box = (0 0 0) to (31.066736 31.066736 63.73)
  1 by 1 by 4 MPI processor grid
  reading atoms ...
  4263 atoms
  read_data CPU = 0.024 seconds

pair_style eam/alloy
pair_coeff * * /mnt/c/Users/iwash/Documents/Repositories/Lammps/potentials/AlCu.eam.alloy Al Cu
Reading eam/alloy potential file /mnt/c/Users/iwash/Documents/Repositories/Lammps/potentials/AlCu.eam.alloy with DATE: 2008-10-01

neighbor 2.0 bin
neigh_modify delay 10 check yes

thermo 100
thermo_style custom step temp pe press pxx pyy lx ly lz

print '=== Phase 0: Shake (High-T limit) ==='
=== Phase 0: Shake (High-T limit) ===
velocity all create 1000.0 62549 dist gaussian
fix shake all nve/limit 0.1
run 1000
Neighbor list info ...
  update: every = 1 steps, delay = 10 steps, check = yes
  max neighbors/atom: 2000, page size: 100000
  master list distance cutoff = 8.6825
  ghost atom cutoff = 8.6825
  binsize = 4.34125, bins = 8 8 14
  1 neighbor lists, perpetual/occasional/extra = 1 0 0
  (1) pair eam/alloy, perpetual
      attributes: half, newton on
      pair build: half/bin/atomonly/newton
      stencil: half/bin/3d
      bin: standard
Per MPI rank memory allocation (min/avg/max) = 3.495 | 3.722 | 3.954 Mbytes
   Step          Temp          PotEng         Press           Pxx            Pyy             Lx             Ly             Lz      
         0   1000          -14435.3        7032.0121      5955.445       6210.3206      31.066736      31.066736      59.987149    
       100   603.64341     -14217.232      18627.365      18831.012      18305.919      31.066736      31.066736      61.325953    
       200   592.51841     -14210.953      9588.6263      10229.73       9882.4628      31.066736      31.066736      62.051054    
       300   597.40592     -14213.418      3889.2724      5145.2923      4786.1094      31.066736      31.066736      62.911677    
       400   587.36074     -14207.651      115.48893      1315.3875      1063.998       31.066736      31.066736      63.007079    
       500   564.65741     -14195.002     -7578.6636     -6473.6237     -5684.4536      31.066736      31.066736      63.544479    
       600   544.79554     -14183.949     -18184.659     -16829.766     -15185.995      31.066736      31.066736      63.9793      
       700   536.25629     -14179.218     -19349.657     -17872.188     -16049.665      31.066736      31.066736      64.832188    
       800   561.71481     -14193.297     -11753.335     -11259.593     -9604.5869      31.066736      31.066736      63.982666    
       900   576.76536     -14201.704     -2775.2349     -2871.4037     -1602.0193      31.066736      31.066736      63.223139    
      1000   597.95928     -14213.558      3479.0318      2874.8282      3993.0663      31.066736      31.066736      63.082797 Pair    | 1.8368     | 2.1708     | 2.5291     |  21.1 | 79.07
Neigh   | 0.028632   | 0.048942   | 0.06676    |   7.1 |  1.78
Comm    | 0.13961    | 0.49145    | 0.80102    |  43.7 | 17.90
Output  | 0.00024896 | 0.0003342  | 0.00052622 |   0.0 |  0.01
Modify  | 0.0055554  | 0.0066213  | 0.0078534  |   1.1 |  0.24
Other   |            | 0.0274     |            |       |  1.00

Nlocal:        1065.75 ave        1296 max         855 min
Histogram: 1 1 0 0 0 0 0 1 0 1
Nghost:        3577.25 ave        4459 max        2410 min
Histogram: 1 0 0 0 0 1 0 1 0 1
Neighs:        97093.8 ave      140767 max       55300 min
Histogram: 1 1 0 0 0 0 0 1 0 1

Total # of neighbors = 388375
Ave neighs/atom = 91.103683
Neighbor list builds = 28
Dangerous builds = 0
=== Phase 1: 0K Relaxation ===
Switching to 'neigh_modify every 1 delay 0 check yes' setting during minimization
Setting up cg style minimization ...
  Unit style    : metal
  Current step  : 1000
WARNING: Energy due to 3 extra global DOFs will be included in minimizer energies
 (src/min.cpp:222)
Per MPI rank memory allocation (min/avg/max) = 4.62 | 4.848 unfix shake
velocity all set 0 0 0

# x,y方向の箱寸法 + 原子位置を同時最適化（z方向はshrink-wrap）
print '=== Phase 1: 0K Relaxation ==='
=== Phase 1: 0K Relaxation ===
fix relax all box/relax x 0.0 y 0.0 vmax 0.001
minimize 1.0e-8 1.0e-10 10000 100000
Switching to 'neigh_modify every 1 delay 0 check yes' setting during minimization
WARNING: Energy due to 3 extra global DOFs will be included in minimizer energies
 (src/min.cpp:222)
Per MPI rank memory allocation (min/avg/max) = 4.62 | 4.848 | 5.079 Mbytes
   Step          Temp          PotEng         Press           Pxx            Pyy             Lx             Ly             Lz      
      1000 Loop time of 1.3019 on 4 procs for 298 steps with 4263 atoms

103.8% CPU use with 4 MPI tasks x 1 OpenMP threads

Minimization stats:
  Stopping criterion = linesearch alpha is zero
  Energy initial, next-to-last, final = 
      -14213.558335918   -14413.177909125   -14413.177909125
  Force two-norm initial, final = 135.60352 31.817905
  Force max component initial, final = 103.87687 17.663296
  Final line search alpha, max atom move = 6.7489833e-12 1.1920929e-10
  Iterations, force evaluations = 298 366

MPI task timing breakdown:
Section |  min time  |  avg time  |  max time  |%varavg| %total
---------------------------------------------------------------
Pair    | 1.2495     | 1.25       | 1.2506     |   0.0 | 96.01
Neigh   | 0          | 0          | 0          |   0.0 |  0.00
Comm    | 0.014739   | 0.014821   | 0.015042   |   0.1 |  1.14
Output  | 5.0379e-05 | 6.5203e-05 | 0.00010728 |   0.0 |  0.01
Modify  | 0          | 0          | 0          |   0.0 |  0.00
Other   |            | 0.03701    |            |       |  2.84

Nlocal:        1065.75 ave        1296 max         858 min
Histogram: 1 1 0 0 0 0 0 1 0 1
Nghost:        3582.25 ave        4485 max        2405 min
Histogram: 1 0 0 0 0 1 0 1 0 1
Neighs:        97207.5 ave      140642 max       55480 min
Histogram: 1 1 0 0 0 0 0 1 0 1

Total # of neighbors = 388830
Ave neighs/atom = 91.210415
Neighbor list builds = 0
Dangerous builds = 0
=== Phase 2: Annealing at 600.0K for 10.0ps ===
Setting up Verlet run ...
  Unit style    : metal
  Current step  : 0
  Time step     : 0.002
Per MPI rank memory allocation (min/avg/max) = 3.495 | 3.723 | 3.954 Mbytes
   Step          Temp          PotEng         Press           Pxx            Pyy             Lx             Ly             Lz      
         0   600           -14413.178      4669.1884      6285.9536      6307.2722      30.712398      30.740512      62.86641     
       100   444.74955     -14270.4unfix relax

# 界面近傍の原子配置を緩和（ミスフィット軽減）
print '=== Phase 2: Annealing at 600.0K for 10.0ps ==='
=== Phase 2: Annealing at 600.0K for 10.0ps ===
reset_timestep 0
velocity all create 600.0 62549 dist gaussian
fix ann all npt temp 600.0 600.0 0.1 x 0.0 0.0 1.0 y 0.0 0.0 1.0
run 5000
Per MPI rank memory allocation (min/avg/max) = 3.495 | 3.723 | 3.954 Mbytes
   Step          Temp          PotEng         Press           Pxx            Pyy             Lx             Ly             Lz      
         0   600           -14413.178      4669.1884      6285.9536      6307.2722      30.712398      30.740512      62.86641     
       100   444.74955     -14270.437     -5452.8116     -5609.9589     -5526.9961      31.073907      31.106423      63.211053    
       200   527.5706      -14231.452      1382.4301      952.60914      1970.0487      31.014106      31.040063      62.750421    
       300   589.7552      -14188.699      1764.1839      2217.0545      1559.7223      31.042864      31.120484      63.006953    
       400   621.50002     -14172.824     -1650.4675     -2408.4155     -2418.3452      31.177905      31.222647      63.094103    
       500   597.35333     -14183.349      2705.0345      1945.8975      1804.5336      31.107873      31.103318      63.139194    
       600   597.13353     -14191.749     -1921.4494     -2299.3054     -2439.4308      31.180105      31.21208       62.991476    
       700   608.70313     -14174.265      1105.5672      1545.5651      154.86516      31.116403      31.212116      63.430316    
       800   612.51621     -14173.329     -1198.012      -680.50469     -1122.4999      31.157957      31.177695      63.537753    
       900   598.42356     -14185.309      116.43006      246.8322       933.60159      31.106498      31.107335      63.077214    
      1000   583.81368     -14181.376      66.434321      1025.175       172.21143      31.059711      31.105908      63.360905    
      1100   597.87675     -14173.389     -457.79417     -260.90237     -322.26788      31.076473      31.083034      63.58229     
      1200   605.90023     -14179.733      98.321667      885.45095     -337.75702      31.053053      31.090398      63.595481    
      1300   592.76855     -14185.459     -459.13575     -873.35878     -125.55145      31.074489      31.096529      64.195284    
      1400   593.36093     -14171.229      130.58174      711.82829     -618.44366      31.105983      31.148233      64.582829    
      1500   614.41157     -14172.006      1050.4396      807.88849      898.36134      31.098144      31.108798      64.12326     
      1600   591.82985     -14178.53      -1506.3167     -2488.1345     -1843.2378      31.164162      31.106319      63.641437    
      1700   603.59895     -14182.763      2296.0445      2695.3481      2656.1047      31.013094      31.056812      64.416966    
      1800   591.37075     -14171.677     -962.35052     -806.68129     -1485.1428      31.076987      31.098742      64.454915    
      1900   603.4644      -14176.193     -562.15751     -2036.8691      1059.8332      31.128136      31.041254      64.171305    
      2000   604.56683     -14189.452      2171.6065      3857.2154      341.86256      30.979745      31.07228       64.588011    
      2100   592.41873     -14181.419     -1534.6894     -2417.9957     -502.52988      31.150      2700   604.44341     -14185.719      357.88825      256.52136      1015.7635      31.088849      31.04931       64.188942    
      2800   600.55584     -14185.861     -2183.1114     -2177.5803     -2321.8507      31.136178      31.094357      64.374519    
      2900   601.13515     -14176.19       1040.5523      1197.1687      1072.0147      31.140671      31.054288      64.430634    
      3000   590.2159      -14172.909     -613.23237     -789.87652     -375.51079      31.207089      31.100389      64.129652    
      3100   609.92628     -14190.421     -1125.652      -1212.4729     -616.29836      31.130319      31.093956      63.512036    
      3200   591.85917     -14184.431       2700   604.44341     -14185.719      357.88825      256.52136      1015.7635      31.088849      31.04931       64.188942    
      2800   600.55584     -14185.861     -2183.1114     -2177.5803     -2321.8507      31.136178      31.094357      64.374519    
      2900   601.13515     -14176.19       1040.5523      1197.1687      1072.0147      31.140671      31.054288      64.430634    
      3000   590.2159      -14172.909     -613.23237     -789.87652     -375.51079      31.207089      31.100389      64.129652    
      3100   609.92628     -14190.421     -1125.652      -1212.4729     -616.29836      31.130319      31.093956      63.512036    
      3200   591.85917     -14184.431      2220.1822      3004.2726      1948.2073      31.084502      31.055766      63.676754    
      3300   598.05272     -14177.056     -1076.4701     -1288.6389     -857.88359      31.175454      31.092537      63.550948    
      3400   601.19886     -14181.793      520.50304      690.88143      503.69393      31.127466      31.075715      64.025114    
      3500   598.50024     -14186.513     -176.38174     -701.14203      60.969146      31.174153      31.086783      63.801132    
      3600   604.60219     -14173.471      170.6998      -641.34014     -101.14878      31.221427      31.110642      64.448736    
      3700   603.70475     -14175.726      2003.5194      2856.7465      401.60771      31.129565      31.110475      64.63094     
      3800   588.62679     -14178.939     -1752.0303     -3488.0946     -939.63686      31.268158      31.099554      64.417335    
      3900   620.42785     -14187.279      1623.7927      1240.9403      2155.5227      31.144404      31.04133       64.387543    
      4000   591.2388      -14180.467     -647.67211     -42.924274     -1178.3248      31.107365      31.122197      64.118235    
      4100   597.20825     -14181.461      5.7409571      334.29487     -228.38098      31.148839      31.072448      64.368074    
      4200   604.61417     -14179.374      603.06815      686.29639      838.49333      31.160573      31.019206      64.410797    
      4300   589.66041     -14180.859     -1712.9046     -1619.5252     -1581.7281      31.160712      31.08991       63.859194    
      4400   599.87638     -14180.911      1090.9231      1269.2711      963.42978      31.095969      31.094829      64.61731     
      4500   602.94359     -14177.695      57.490666     -604.06099      1109.4812      31.145012      31.059119      64.789655    
      4600   592.62657     -14179.9       -160.0689       406.41606     -1126.1772      31.08523       31.089896      65.021683    
      4700   586.3833      -14185.854      586.70864      500.08689      865.3248       31.070654      30.997707      65.452911    
      4800   608.96884     -14183.162     -2265.8379 Pair    | 8.2213     | 10.204     | 12.01      |  55.6 | 78.90
Neigh   | 0.13509    | 0.25893    | 0.37545    |  19.7 |  2.00
Comm    | 0.31492    | 2.1805     | 4.0979     | 122.3 | 16.86
Output  | 0.0011146  | 0.0014594  | 0.0024437  |   1.5 |  0.01
Modify  | 0.17447    | 0.25162    | 0.43679    |  21.4 |  1.95
Other   |            | 0.0369     |            |       |  0.29

Nlocal:        1065.75 ave        1296 max         840 min
Histogram: 2 0 0 0 0 0 0 0 0 2
Nghost:        3643.75 ave        4622 max        2394 min
Histogram: 1 0 0 0 1 0 0 1 0 1
Neighs:        96602.5 ave      139410 max       53640 min
Histogram: 1 1 0 0 0 0 0 0 1 1

Total # of neighbors = 386410
Ave neighs/atom = 90.64274
Neighbor list builds = 157
Dangerous builds = 0
=== Phase 2b: Cooling 600.0K -> 300.0K ===
Setting up Verlet run ...
  Unit style    : metal
  Current step  : 5000
  Time step     : 0.002
Per MPI rank memory allocation (min/avg/max) = 3.495 | 3.723 | 3.954 Mbytes
   Step          Temp          PotEng         Press           Pxx            Pyy             Lx             Ly             Lz      
      5000   588.35262     -14179.761     -1007.6896     -1810.0688     -588.22747      31.111161      31.002798      64.604726    
      5100   598.81168     -14175.716      851.54003      1051.1242      292.40875      31.07308       31.03307       64.471385    
      5200   598.01753     -14182.466     -403.18531     -251.83898     -416.45009    unfix ann

print '=== Phase 2b: Cooling 600.0K -> 300.0K ==='
=== Phase 2b: Cooling 600.0K -> 300.0K ===
fix cool all npt temp 600.0 300.0 0.1 x 0.0 0.0 1.0 y 0.0 0.0 1.0
run 5000
Per MPI rank memory allocation (min/avg/max) = 3.495 | 3.723 | 3.954 Mbytes
   Step          Temp          PotEng         Press           Pxx            Pyy             Lx             Ly             Lz      
      5000   588.35262     -14179.761     -1007.6896     -1810.0688     -588.22747      31.111161      31.002798      64.604726    
      5100   598.81168     -14175.716      851.54003      1051.1242      292.40875      31.07308       31.03307       64.471385    
      5200   598.01753     -14182.466     -403.18531     -251.83898     -416.45009      31.077971      31.036746      64.755925    
      5300   590.37839     -14191.377     -599.00215      178.08988     -764.8732       31.030573      30.988921      64.775258    
      5400   587.14502     -14200.484     -541.36686      616.23663     -1041.3451      30.992861      31.006221      64.50225     
      5500   586.09029     -14206.052     -1343.1605     -1431.9616     -366.00072      31.011477      30.942944      64.950559    
      5600   566.68855     -14199.763     -847.09938      345.40461     -688.64091      30.977572      30.994235      64.726932    
      5700   555.87583     -14205.772      1216.9278      1831.408       1758.5417      30.967388      30.974187      64.917777    
      5800   543.64226     -14204.723     -1355.7063     -1327.8001     -584.49379      31.049835      30.987309      65.25195     
      5900   544.94201     -14216.278      626.30763      2099.1095     -266.97163      30.981892      31.010384      64.680093    
      6000   539.18463     -14215.694     -381.1486      -872.78699      205.01926      31.086744      31.005748      64.660003    
      6100   535.17132     -14222.345     -650.74224      279.95323     -1385.2547      31.044814      31.053761      64.524321    
      6200   537.84305     -14232.177      546.98995     -180.95638      1583.7984      31.061595      30.999334      64.475745    
      6300   522.33885     -14235.057     -483.88235     -432.11559     -870.24338      31.081717      31.071365      64.215516    
      6400   516.14218     -14238.999      231.37228     -221.85662      575.97809      31.095919      31.063096      64.170711    
      6500   516.19814     -14244.566      1375.4869      764.53032      1521.1642      31.090714      31.085188      63.811508    
      6600   502.00042     -14244.129     -474.16723     -745.57257     -1127.6799      31.122532      31.164055      63.521317    
      6700   499.82801     -14249.811      1788.4469      664.11329      1761.155       31.144128      31.088085      63.452804    
      6800   499.35502     -14259.264     -37.484657      245.05715     -1156.4419      31.12717       31.166525      63.584375    
      6900   492.8787      -14262.61      -396.8337      -1253.9451     -554.14183      31.134797      31.138121      63.314379    
      7000   480.25277     -14262.116      1262.0509      762.79268      1236.795       31.097335      31.08881       63.489643    
      7100   476.03675     -14267.732     -777.26297     -751.59715     -1095.1789      31.100504      31.138972      64.005287    
      7200   474.60766     -14275.852      486.45624        7800   432.23291     -14293.07      -1379.317      -212.40347     -2007.7568      31.013213      31.111104      63.608778    
      7900   419.48858     -14297.31       188.40065      407.1205       137.86287      31.035048      31.030604      63.476205    
      8000   424.59093     -14304.509     -69.189659     -1413.2314      1727.8129      31.095513      30.984787      63.822386    
      8100   411.97849     -14307.245     -652.05266      1135.8176     -2815.0503      30.979959      31.117605      63.367407    
      8200   414.83214     -14311.435     -82.605853     -1521.0428      1150.8807      31.085835      31.003292      63.513431    
      8300   406.28713     -14315.82       472.57314      908.06803      214.06433      31 432.23291     -14293.07      -1379.317      -212.40347     -2007.7568      31.013213      31.111104      63.608778    
      7900   419.48858     -14297.31       188.40065      407.1205       137.86287      31.035048      31.030604      63.476205    
      8000   424.59093     -14304.509     -69.189659     -1413.2314      1727.8129      31.095513      30.984787      63.822386    
      8100   411.97849     -14307.245     -652.05266      1135.8176     -2815.0503      30.979959      31.117605      63.367407    
      8200   414.83214     -14311.435     -82.605853     -1521.0428      1150.8807      31.085835      31.003292      63.513431    
      8300   406.28713     -14315.82       472.57314      908.06803      214.06433      31.002866      31.047789      63.752961    
      8400   394.94482     -14317.253      60.679148     -92.60422       84.156844      31.031097      31.026413      63.701808    
      8500   392.80908     -14322.472     -176.06111     -639.25014      394.41308      31.051038      31.003017      63.296102    
      8600   382.5313      -14323.377      71.154887      1123.1285     -503.57724      30.998342      31.049209      63.239217    
      8700   384.11232     -14330.678     -166.69663     -689.30807      776.01947      31.055448      31.001581      63.699729    
      8800   379.49607     -14335.527     -649.59953     -182.26252     -938.56758      31.022236      31.046634      63.346781    
      8900   371.13014     -14339.29      -701.2782      -633.44752     -324.85675      31.036284      31.026636      63.289614    
      9000   365.61605     -14342.476      104.45045     -262.22811      483.44157      31.055637      31.023015      62.978595    
      9100   357.9042      -14345.058      643.32815      1254.8298      98.539609      31.010299      31.043382      63.075586    
      9200   350.17655     -14349.403     -979.34565     -1476.2429     -709.06472      31.062609      31.034315      63.120539    
      9300   347.72125     -14355.688      801.93946      1098.2378      449.50741      31.013996      31.032823      63.682427    
      9400   344.84163     -14359.449      121.48293      14.479235      69.884198      31.028118      31.034598      63.148056    
      9500   330.01148     -14359.059     -555.24671     -1568.2194      25.684377      31.077677      31.026722      62.857765    
      9600   325.30085     -14364.096      893.3048       1580.539       510.06349      31.008763      31.04874       63.072332    
      9700   323.77398     -14369.955     -704.42174     -907.69502     -883.20609      31.034816      31.046303      62.63749     
      9800   311.48344     -14370.711     -66.185979     -584.51054      197.65864      31.041899      31.004342      63.202125    
      9Comm    | 0.39122    | 2.2386     | 4.0585     | 116.9 | 17.12
Output  | 0.0011386  | 0.0014918  | 0.0025055  |   1.5 |  0.01
Modify  | 0.1831     | 0.24548    | 0.384      |  16.3 |  1.88
Other   |            | 0.04225    |            |       |  0.32

Nlocal:        1065.75 ave        1296 max         838 min
Histogram: 2 0 0 0 0 0 0 0 0 2
Nghost:           3659 ave        4669 max        2400 min
Histogram: 1 0 0 0 1 0 0 1 0 1
Neighs:        98741.5 ave      141745 max       55484 min
Histogram: 1 1 0 0 0 0 0 0 1 1

Total # of neighbors = 394966
Ave neighs/atom = 92.649777
Neighbor list builds = 121
Dangerous builds = 0
=== Phase 3: Define Grips ===
432 atoms in group bottom
242 atoms in group top
3589 atoms in group mobile
Bottom grip: 432 atoms
Top grip:    242 atoms
Mobile:      3589 atoms
=== Phase 4: Equilibration with Grips ===
Setting up Verlet run ...
  Unit style    : metal
  Current step  : 0
  Time step     : 0.002
Per MPI rank memory allocation (min/avg/max) = 3.495 | 3.723 | 3.954 Mbytes
   Step          Temp          PotEng         Press           Pxx            Pyy             Lx             Ly             Lz      
         0   258.81354     -14380.866     -11.451221     -413.08558      371.42791      31.028555      30.989935      62.642555    
       100   275.46247     -14368.047      1.7051787      173.10814     -631.95187    unfix cool

# 焼きなまし後の座標を基準にグリップ領域を定義
print '=== Phase 3: Define Grips ==='
=== Phase 3: Define Grips ===
variable zmin equal bound(all,zmin)
variable zmax equal bound(all,zmax)
variable grip_thick equal 5.0
variable zlo_grip equal ${zmin}+${grip_thick}
variable zlo_grip equal 1.6918811844289+${grip_thick}
variable zlo_grip equal 1.6918811844289+5
variable zhi_grip equal ${zmax}-${grip_thick}
variable zhi_grip equal 64.3216906466903-${grip_thick}
variable zhi_grip equal 64.3216906466903-5

region rgn_bot block INF INF INF INF INF ${zlo_grip}
region rgn_bot block INF INF INF INF INF 6.6918811844289
region rgn_top block INF INF INF INF ${zhi_grip} INF
region rgn_top block INF INF INF INF 59.3216906466903 INF
group bottom region rgn_bot
432 atoms in group bottom
group top region rgn_top
242 atoms in group top
group mobile subtract all bottom top
3589 atoms in group mobile

print 'Bottom grip: $(count(bottom)) atoms'
Bottom grip: 432 atoms
print 'Top grip:    $(count(top)) atoms'
Top grip:    242 atoms
print 'Mobile:      $(count(mobile)) atoms'
Mobile:      3589 atoms

print '=== Phase 4: Equilibration with Grips ==='
=== Phase 4: Equilibration with Grips ===
reset_timestep 0
velocity bottom set 0.0 0.0 0.0
velocity top set 0.0 0.0 0.0
# グリップ: nve（時間積分）+ setforce 0（力ゼロ）→ 等速運動
fix nve_bot bottom nve
fix nve_top top nve
fix freeze_bot bottom setforce 0.0 0.0 0.0
fix freeze_top top setforce 0.0 0.0 0.0
fix eq mobile npt temp 300.0 300.0 0.1 x 0.0 0.0 1.0 y 0.0 0.0 1.0
run 5000
Per MPI rank memory allocation (min/avg/max) = 3.495 | 3.723 | 3.954 Mbytes
   Step          Temp          PotEng         Press           Pxx            Pyy             Lx             Ly             Lz      
         0   258.81354     -14380.866     -11.451221     -413.08558      371.42791      31.028555      30.989935      62.642555    
       100   275.46247     -14368.047      1.7051787      173.10814     -631.95187      31.025797      31.0      1700   294.66297     -14353.381     -104.38465      216.44491     -660.95465      31.052854      31.079595      62.642555    
      1800   294.22548     -14355.832     -137.71819     -1000.8192      594.29866      31.086986      31.034125      62.642555    
      1900   300.70829     -14352.217      476.91458      1536.3149     -978.68185      31.015454      31.092901      62.642555    
      2000   296.41306     -14354.086      667.34352     -679.00701      1747.8825      31.096595      30.998015      62.642555    
      2100   300.28626     -14355.084      256.04845      1645.0611     -1295.0858      31.015749      31.095409      62.642555    
      2200   299.33032     -14350.068     -21.345254     -1030.2762      658.84178      31.084858      31.040008      62.642555    
      2300   298.40817     -14354.441     -456.72083     -842.90108     -219.56452      31.06732       31.057465      62.642555    
      2400   300.05165     -14355.023      100.92424      427.5212      -595.97283      31.042627      31.058989      62.642555    
      2500   300.81028     -14354.523      744.44249     -83.409153      1177.2428      31.0751        31.018501      62.642555    
      2600   303.96979     -14354.333      507.40181      874.44686     -200.42565      31.035598      31.068883      62.642555    
      2700   301.88374     -14353.276     -273.23443     -971.11021      226.91193      31.085445      31.040427      62.642555    
      2800   300.66825     -14358.01      -369.545       -770.55393     -534.16976      31.059801      31.059823      62.642555    
      2900   303.8125      -14351.923     -175.84258     -449.31859     -480.21818      31.064572      31.073767      62.642555    
      3000   305.5572      -14354.348      788.72033      400.97477      931.62765      31.058534      31.038071      62.642555    
      3100   294.11367     -14352.009      1819.2558      2134.1379      1096.5755      31.014599      31.053657      62.642555    
      3200   302.17702     -14352.051      805.70024     -111.22353      1308.1638      3191     -660.95465      31.052854      31.079595      62.642555    
      1800   294.22548     -14355.832     -137.71819     -1000.8192      594.29866      31.086986      31.034125      62.642555    
      1900   300.70829     -14352.217      476.91458      1536.3149     -978.68185      31.015454      31.092901      62.642555    
      2000   296.41306     -14354.086      667.34352     -679.00701      1747.8825      31.096595      30.998015      62.642555    
      2100   300.28626     -14355.084      256.04845      1645.0611     -1295.0858      31.015749      31.095409      62.642555    
      2200   299.33032     -14350.068     -21.345254     -1030.2762      658.84178      31.084858      31.040008      62.642555    
      2300   298.40817     -14354.441     -456.72083     -842.90108     -219.56452      31.06732       31.057465      62.642555    
      2400   300.05165     -14355.023      100.92424      427.5212      -595.97283      31.042627      31.058989      62.642555    
      2500   300.81028     -14354.523      744.44249     -83.409153      1177.2428      31.0751        31.018501      62.642555    
      2600   303.96979     -14354.333      507.40181      874.44686     -200.42565      31.035598      31.068883      62.642555    
      2700   301.88374     -14353.276     -273.23443     -971.11021      226.91193      31.085445      31.040427      62.642555    
      2800   300.66825     -14358.01      -369.545       -770.55393     -534.16976      31.059801      31.059823      62.642555    
      2900   303.8125      -14351.923     -175.84258     -449.31859     -480.21818      31.064572      31.073767      62.642555    
      3000   305.5572      -14354.348      788.72033      400.97477      931.62765      31.058534      31.038071      62.642555    
      3100   294.11367     -14352.009      1819.2558      2134.1379      1096.5755      31.014599      31.053657      62.642555    
      3200   302.17702     -14352.051      805.70024     -111.22353      1308.1638      31.079203      31.0      4800   304.55413     -14353.405      62.496215     -210.55203     -407.55852      31.061719      31.046882      62.642555    
      4900   295.58947     -14352.091     -597.90453     -1448.6028     -412.61968      31.071812      31.057593      62.642555    
      5000   297.03085     -14355.944     -673.209       -497.82904     -1144.6042      31.048741      31.081119      62.642555    
Loop time of 13.35 on 4 procs for 5000 steps with 4263 atoms

Performance: 64.719 ns/day, 0.371 hours/ns, 374.532 timesteps/s, 1.597 Matom-step/s
103.4% CPU use with 4 MPI tasks x 1 OpenMP threads

MPI task timing breakdown:
Section |  min time  |  avg time  |  max time  |%varavg| %total
---------------------------------------------------------------
Pair    | 8.6292     | 10.59      | 12.419     |  54.7 | 79.32
Neigh   | 0.071756   | 0.1366     | 0.19709    |  14.4 |  1.02
Comm    | 0.47574    | 2.2752     | 4.0932     | 116.8 | 17.04
Output  | 0.0012472  | 0.0017418  | 0.0031539  |   2.0 |  0.01
Modify  | 0.21968    | 0.30192    | 0.50316    |  21.2 |  2.26
Other   |            | 0.04507    |            |       |  0.34

Nlocal:        1065.75 ave        1296 max         847 min
Histogram: 2 0 0 0 0 0 0 0 0 2
Nghost:           3644 ave        4653 max        2390 min
Histogram: 1 0 0 0 1 0 0 1 0 1
Neighs:        98622.2 ave      141635 max       55381 min
Histogram: 1 1 0 0 0 0 0 0 1 1

Total # of neighbors = 394489
Ave neighs/atom = 92.537884
Neighbor list builds = 80
Dangerous builds = 0
=== Phase 5: Tensile Test ===
Initial grip distance L0 = 57.8348942294677 Ang
Pull velocity = 0.115669788458935 Ang/ps (erate=0.002/ps)
Setting up Verlet run ...
  Unit style    : metal
  Current step  : 0
  Time step     : 0.002
Per MPI rank memory allocation (min/avg/max) = 4.995 | 5.223 | 5.454 Mbytes
   Step          Temp         v_strain     v_stress_zz        Pxx            Pyy             Lx             Ly           v_Lmat    
         0   297.03907     -1.3514281e-15  0.040828894   -497.82904     -1144.6042      31.048741      31.081119      57.834894    
       100   272.94337      0.0004         0.21912781    -2521.8152     -3061.2167      31.048741      31.081119      57.858028    
       200   253.44174      0.0008         0.40534759    -3951.1464     -4531.8461      31.048741      31.081119      57.881162    
       300   245.06516      0.0012         0.42204628    -4152.5031     -5262.0636      31.048741      31.081119      57.904296    
       400   256.06929      0.0016         0.46306823    -4245.7298     -4765.8312      31.048741      31.081119      57.92743     
       500   250.65291      0.002          0.50384479    -4637.0341     -4740.8521      31.048741      31.081119      57.950564    
       600   249.62877      0.0024         0.59107809    -5237.1858     -6421.1656      31.048741      31.081119      57.973698    
       700   257.10818      0.0028         0.62148978    -5561.3149     -6482.6003      31.048741      31.081119      57.996832    
       800   255.72417      0.0032         0.68135227    -5626.8858     -6401.0357      31.048741      31.081119      58.019966    
       900   249.16736      0.0036         0.74746114    -6431.7144     -7182.9273      31.048741      31.081119      58.0431      
      1000   248.45513      0.004          0.76547645    -6531.431      -7105.56        31.048741      31.081119      58.066234    
      1100   253.58287      0.0044         0.79121282    -6122.8612     -7548.7505      31.048741      31.081119   unfix eq

print '=== Phase 5: Tensile Test ==='
=== Phase 5: Tensile Test ===
reset_timestep 0

# グリップ重心間距離で初期材料長を定義
variable zcm_bot equal xcm(bottom,z)
variable zcm_top equal xcm(top,z)
variable tmp_L equal v_zcm_top-v_zcm_bot
variable L0 equal ${tmp_L}
variable L0 equal 57.8348942294677
print 'Initial grip distance L0 = ${L0} Ang'
Initial grip distance L0 = 57.8348942294677 Ang

# 引っ張り速度 = erate × L0
variable vpull equal 0.002*v_L0
velocity top set 0.0 0.0 ${vpull}
velocity top set 0.0 0.      1600   252.02248      0.0064         0.927862      -7544.737      -8254.4646      31.048741      31.081119      58.205038    
      1700   252.4064       0.0068         0.94977725    -7525.8029     -8065.8665      31.048741      31.081119      58.228172    
      1800   251.52205      0.0072         1.027284      -7951.6556     -8920.9516      31.048741      31.081119      58.251305    
      1900   249.86524      0.0076         1.0586498     -8379.7228     -9616.3466      31.048741      31.081119      58.274439    
      2000   256.97157      0.008          1.133823      -9026.8177     -9710.4427      31.048741      31.081119      58.297573    
      2100   252.00848      0.0084         1.1847385     -9234.1462     -10649.947      31.048741      31.081119      58.320707    
      2200   255.22279      0.0088         1.2621013     -10154.951     -10655.828      31.048741      31.081119      58.343841    
      2300   255.39058      0.0092         1.2234597     -9429.9        -10579.747      31.048741      31.081119      58.366975    
      2400   253.41442      0.0096         1.2623748     -9486.4547     -10333.596      31.048741      31.081119      58.390109    
      2500   246.90522      0.01           1.3228139     -10389.272     -11185.249      31.048741      31.081119      58.413243    
      2600   252.7391       0.0104         1.2832482     -9946.1198     -11332.738      31.048741      31.081119      58.436377    
      2700   254.90801      0.0108         1.2850486     -10050.736     -11032.613      31.048741      31.081119      58.459511    
      2800   244.25277      0.0112         1.3625202     -10684.181     -11776.822      31.048741      31.081119      58.482645    
      2900   248.38253      0.0116         1.4012865     -11485.039     -12351.417      31.048741      31.081119      58.505779    
      3000   250.96758      0.012          1.3883855     -11075.966     -11667.653      31.048741      31.081119      58.528913    
      3100   255.8237       0.0124         1.505879      -11936.345     -12434.775      31.048741      31.081119      58.552047    
      3200   245.92845      0.0128         1.574532      -12026.122     -12718.767      31.048741      31.081119      58.575181    
      3300   253.73401      0.0132         1.558059      -12291.451     -12712.232      31.048741      31.081119      58.598315    
      3400   250.55925      0.0136         1.6149853     -12880.621     -13362.238      31.048741      31.081119      58.621449    
      3500   250.06565      0.014          1.6883547     -12817.518     -13933.612      31.048741      31.081119      58.644583    
      3600   255.00447      0.0144         1.6274212     -12696.094     -13802.896      31.048741      31.081119      58.667717    
      3700   255.37621      0.0148         1.7056788     -13731.893     -14399.85       31.048741      31.081119      58.690851    
      3800   246.99413      0.0152         1.7004024     -13751.626     -14381.345      31.048741      31.081119      58.713985    
      3900   254.50419      0.0156         1.6642135     -13236.462     -14353.065      31.048741      31.081119      58.737119    
      4000   247.18605      0.016          1.7254563     -13838.917     -14242.794      31.048741      31.081119      58.760253    
      4100   253.53237      0.0164         1.8466587     -13743.864     -14933.373      31.048741      31.081119      58.783386    
      4200   249.7575       0.0168         1.8181056     -13663.994     -15089.381      31.048741      31.081119      5.927862      -7544.737      -8254.4646      31.048741      31.081119      58.205038    
      1700   252.4064       0.0068         0.94977725    -7525.8029     -8065.8665      31.048741      31.081119      58.228172    
      1800   251.52205      0.0072         1.027284      -7951.6556     -8920.9516      31.048741      31.081119      58.251305    
      1900   249.86524      0.0076         1.0586498     -8379.7228     -9616.3466      31.048741      31.081119      58.274439    
      2000   256.97157      0.008          1.133823            4700   252.30491      0.0188         2.1053981     -16009.717     -16974.53       31.048741      31.081119      58.92219     
      4800   257.0994       0.0192         2.1071766     -15762.119     -16881.843      31.048741      31.081119      58.945324    
      4900   257.47864      0.0196         2.1243249     -16200.772     -17079.178      31.048741      31.081119      58.968458    
      5000   250.50527      0.02           2.1253496     -16737.302     -17384.57       31.048741      31.081119      58.991592    
      5100   253.64644      0.0204         2.1117127     -16304.5       -17268.521      31.048741      31.081119      59.014726    
      5200   252.21073      0.0208         2.1269065     -17000.136     -17026.26       31.048741      31.081119      59.03786     
      5300   248.871        0.0212         2.1903767     -17292.281     -17953.427      31.048741      31.081119      59.060994    
      5400   252.06182      0.0216         2.2269045     -17049.261     -17571.866      31.048741      31.081119      59.084128    
      5500   250.85996      0.022          2.1949188     -17202.066     -18025.08       31.048741      31.081119      59.107262    
      5600   256.5657       0.0224         2.2350539     -17978.402     -18183.227      31.048741      31.081119      59.130396    
      5700   258.56526      0.0228         2.3656232     -17850.706     -18439.49       31.048741      31.081119      59.15353     
      5800   250.77484      0.0232         2.3989319     -18634.028     -19132.198      31.048741      31.081119      59.176664    
      5900   253.75536      0.0236         2.3671904     -18204.047     -19257.114      31.048741      31.081119      59.199798    
      6000   256.16209      0.024          2.4524758     -18538.555     -19169.589      31.048741      31.081119      59.222932    
      6100   249.09752      0.0244         2.4870572     -19127.882     -19362.844      31.048741      31.081119      59.246066    
      6200   251.27362      0.0248         2.5475975     -19992.276     -19851.044      31.048741      31.081119      59.2692      
      6300   250.66719      0.0252         2.5539251     -18937.779     -19108.998      31.048741      31.081119      59.292334    
      6400   252.80746      0.0256         2.5899494     -19581.902     -19934.968      31.048741      31.081119      59.315468    
      6500   249.80026      0.026          2.602022      -19357.505     -20936.579      31.048741      31.081119      59.338601    
      6600   251.45502      0.0264         2.616745      -19456.374     -20504.086      31.048741      31.081119      59.361735    
      6700   250.63168      0.0268         2.634142      -19988.368     -20989.819      31.048741      31.081119      59.384869    
      6800   247.20463      0.0272         2.6975138     -20588.266     -21898.861      31.048741      31.081119      59.408003    
      6900   248.4159       0.0276         2.6448367     -20607.78      -21147.779      31.048741      31.081119      59.431137    
      7000   254.71916      0.028          2.7081978     -20578.842     -21199.3        31.048741      31.081119      59.454271    
      7100   254.55578      0.0284         2.8400365     -21373.117     -21835.486      31.048741      31.081119      59.477405    
      7200   248.83288      0.0288         2.8181717     -21389.642     -22064.93       31.048741      31.081119      59.500539    
      7300   254.60712      0.0292         2.8605932     -21566.157     -21920.052      31.048741      31.081119      59.523981     -16009.717     -16974.53       31.048741      31.081119      58.92219     
      4800   257.0994       0.0192         2.1071766     -15762.119     -16881.843      31.048741      31.081119      58.945324    
      4900   257.47864      0.0196         2.1243249     -16200.772     -17079.178      31.048741      31.081119      58.968458    
      5000   250.50527      0.02           2.1253496     -16737.302     -17384.57       31.048741      31.081119      58.991592    
      5100   253.64644      0.0204         2.1117127           7800   245.99389      0.0312         3.0304356     -22682.345     -24045.979      31.048741      31.081119      59.639343    
      7900   253.48181      0.0316         3.0485692     -22920.437     -23510.262      31.048741      31.081119      59.662477    
      8000   257.81676      0.032          3.0739011     -22881.674     -23940.1        31.048741      31.081119      59.685611    
      8100   251.30679      0.0324         3.1047607     -23249.703     -24175.146      31.048741      31.081119      59.708745    
      8200   250.3923       0.0328         3.1096989     -23177.407     -24558.299      31.048741      31.081119      59.731879    
      8300   254.38432      0.0332         3.1008739     -23585.471     -24244.702      31.048741      31.081119      59.755013    
      8400   251.39148      0.0336         3.2065206     -23865.456     -24790.709      31.048741      31.081119      59.778147    
      8500   253.04276      0.034          3.2397609     -24658.162     -25308.002      31.048741      31.081119      59.801281    
      8600   249.84334      0.0344         3.141739      -24189.533     -24928.965      31.048741      31.081119      59.824415    
      8700   253.16014      0.0348         3.2505506     -24433.381     -24926.109      31.048741      31.081119      59.847549    
      8800   249.218        0.0352         3.339788      -24952.112     -25851.344      31.048741      31.081119      59.870683    
      8900   251.34641      0.0356         3.3397049     -24547.881     -25914.693      31.048741      31.081119      59.893816    
      9000   254.86713      0.036          3.3133801     -24553.244     -25729.948      31.048741      31.081119      59.91695     
      9100   251.04525      0.0364         3.3152662     -25115.502     -25769.424      31.048741      31.081119      59.940084    
      9200   251.52692      0.0368         3.4224715     -25489.542     -25993.131      31.048741      31.081119      59.963218    
      9300   249.72449      0.0372         3.3831784     -25703.925     -26128.734      31.048741      31.081119      59.986352    
      9400   253.35364      0.0376         3.4261227     -26107.871     -26679.627      31.048741      31.081119      60.009486    
      9500   248.19087      0.038          3.5277563     -26972.408     -27497.367      31.048741      31.081119      60.03262     
      9600   248.58227      0.0384         3.4375737     -26583.979     -26926.225      31.048741      31.081119      60.055754    
      9700   251.32007      0.0388         3.4747864     -26131.95      -27039.587      31.048741      31.081119      60.078888    
      9800   251.70353      0.0392         3.6023204     -27483.579     -28189.517      31.048741      31.081119      60.102022    
      9900   252.86334      0.0396         3.616452      -27168.253     -27459.799      31.048741      31.081119      60.125156    
     10000   248.80776      0.04           3.5209041     -26989.472     -27345.467      31.048741      31.081119      60.14829     
     10100   255.5093       0.0404         3.6106841     -27330.517     -27795.431      31.048741      31.081119      60.171424    
     10200   253.37604      0.0408         3.560493      -26940.846     -28105.141      31.048741      31.081119      60.194558    
     10300   250.73504      0.0412         3.6461906     -28377.003     -28911.378      31.048741      31.081119      60.217692    
     10400   252.57537      0.0416         3.6346437     -27345.896     -28853.93       31.048741      31.081119      60.240826     -22682.345     -24045.979      31.048741      31.081119      59.639343    
      7900   253.48181      0.0316         3.0485692     -22920.437     -23510.262      31.048741      31.081119      59.662477    
      8000   257.81676      0.032          3.0739011     -22881.674     -23940.1        31.048741      31.081119      59.685611    
      8100   251.30679      0.0324         3.1047607     -23249.703     -24175.146      31.048741      31.081119      59.708745    
      8200   250.3923       0.0328         3.1096989          10900   248.3732       0.0436         3.7752336     -29218.91      -29879.992      31.048741      31.081119      60.356496    
     11000   249.44547      0.044          3.7640993     -29231.953     -29350.398      31.048741      31.081119      60.37963     
     11100   257.97941      0.0444         3.8431606     -29952.992     -29502.855      31.048741      31.081119      60.402764    
     11200   247.97779      0.0448         3.9118822     -29704.367     -29816.556      31.048741      31.081119      60.425897    
     11300   258.52656      0.0452         3.803007      -29940.779     -29597.674      31.048741      31.081119      60.449031    
     11400   250.65374      0.0456         3.8057422     -30331.631     -29715.224      31.048741      31.081119      60.472165    
     11500   250.67268      0.046          3.9081884     -30677.486     -30215.25       31.048741      31.081119      60.495299    
     11600   259.3315       0.0464         3.9408762     -30695.158     -30892.414      31.048741      31.081119      60.518433    
     11700   251.82718      0.0468         3.9748354     -31035.517     -30939.665      31.048741      31.081119      60.541567    
     11800   252.08977      0.0472         4.015319      -31468.004     -30841.988      31.048741      31.081119      60.564701    
     11900   255.09144      0.0476         3.9627606     -31211.085     -30443.168      31.048741      31.081119      60.587835    
     12000   248.71923      0.048          3.9843437     -32053.389     -31004.269      31.048741      31.081119      60.610969    
     12100   253.83523      0.0484         4.0001038     -31953.058     -31175.296      31.048741      31.081119      60.634103    
     12200   257.60902      0.0488         3.9987268     -31963.515     -30703.708      31.048741      31.081119      60.657237    
     12300   252.72941      0.0492         3.989747      -32730.852     -30813.787      31.048741      31.081119      60.680371    
     12400   253.81816      0.0496         4.0298203     -33092.758     -30964.72       31.048741      31.081119      60.703505    
     12500   259.43027      0.05           4.0090303     -33373.488     -30983.099      31.048741      31.081119      60.726639    
     12600   251.76581      0.0504         4.0313092     -34490.199     -30795.82       31.048741      31.081119      60.749773    
     12700   250.15123      0.0508         4.0348486     -34048.738     -30664.551      31.048741      31.081119      60.772907    
     12800   257.05241      0.0512         4.080851      -35024.052     -30730.536      31.048741      31.081119      60.796041    
     12900   246.25208      0.0516         4.1815656     -35241.938     -31541.181      31.048741      31.081119      60.819175    
     13000   249.91764      0.052          4.1678214     -35420.517     -31729.094      31.048741      31.081119      60.842309    
     13100   250.55953      0.0524         4.0821506     -35072.345     -31502.899      31.048741      31.081119      60.865443    
     13200   253.03687      0.0528         4.2177321     -35453.223     -32695.772      31.048741      31.081119      60.888577    
     13300   248.22365      0.0532         4.179976      -35950.415     -32326.952      31.048741      31.081119      60.911711    
     13400   254.92324      0.0536         4.2209881     -36303.877     -32144.903      31.048741      31.081119      60.934845    
     13500   250.58255      0.054          4.2741275     -36528.868     -32692.068      31.048741      31.081119      60.957979     -29218.91      -29879.992      31.048741      31.081119      60.356496    
     11000   249.44547      0.044          3.7640993     -29231.953     -29350.398      31.048741      31.081119      60.37963     
     11100   257.97941      0.0444         3.8431606     -29952.992     -29502.855      31.048741      31.081119      60.402764    
     11200   247.97779      0.0448         3.9118822     -29704.367     -29816.556      31.048741      31.081119      60.425897    
     11300   258.52656      0.0452         3.803007           14000   251.26542      0.056          4.3276247     -36993.152     -32729.745      31.048741      31.081119      61.073648    
     14100   252.30804      0.0564         4.3265421     -37377.831     -32955.036      31.048741      31.081119      61.096782    
     14200   251.09506      0.0568         4.4031831     -37968.064     -33058.788      31.048741      31.081119      61.119916    
     14300   251.25196      0.0572         4.383036      -38035.879     -33203.002      31.048741      31.081119      61.14305     
     14400   255.03286      0.0576         4.4666288     -38244.308     -33491.041      31.048741      31.081119      61.166184    
     14500   251.22657      0.058          4.5082743     -38528.741     -33808.814      31.048741      31.081119      61.189318    
     14600   254.59997      0.0584         4.6078686     -39579.19      -34825.552      31.048741      31.081119      61.212452    
     14700   250.31832      0.0588         4.4988665     -38907.683     -33646.628      31.048741      31.081119      61.235586    
     14800   255.0878       0.0592         4.5214244     -39028.836     -34324.178      31.048741      31.081119      61.25872     
     14900   253.24993      0.0596         4.608674      -40059.043     -34056.729      31.048741      31.081119      61.281854    
     15000   254.43811      0.06           4.5544709     -39654.856     -34637.072      31.048741      31.081119      61.304988    
     15100   257.93976      0.0604         4.5659946     -39493.388     -34619.564      31.048741      31.081119      61.328122    
     15200   254.35844      0.0608         4.5717624     -39729.644     -34398.433      31.048741      31.081119      61.351256    
     15300   249.98072      0.0612         4.6324187     -39582.57      -35120.365      31.048741      31.081119      61.37439     
     15400   256.25503      0.0616         4.6152286     -39337.668     -34504.957      31.048741      31.081119      61.397524    
     15500   255.78675      0.062          4.6118853     -39292.535     -34335.413      31.048741      31.081119      61.420658    
     15600   250.67792      0.0624         4.6099538     -38816.121     -34382.425      31.048741      31.081119      61.443792    
     15700   249.99348      0.0628         4.64072       -40343.071     -35104.634      31.048741      31.081119      61.466926    
     15800   253.75227      0.0632         4.6036056     -39888.295     -34783.767      31.048741      31.081119      61.49006     
     15900   252.56262      0.0636         4.69329       -40056.332     -35662.766      31.048741      31.081119      61.513194    
     16000   251.13053      0.064          4.7133935     -40845.482     -35353.642      31.048741      31.081119      61.536327    
     16100   259.67087      0.0644         4.7336693     -40438.94      -35498.416      31.048741      31.081119      61.559461    
     16200   252.17968      0.0648         4.796032      -41174.372     -36108.246      31.048741      31.081119      61.582595    
     16300   253.66874      0.0652         4.9004737     -41430.21      -36205.048      31.048741      31.081119      61.605729    
     16400   255.85619      0.0656         4.8205852     -41104.113     -36601.146      31.048741      31.081119      61.628863    
     16500   249.21396      0.066          4.8800673     -41106.409     -36429.412      31.048741      31.081119      61.651997    
     16600   248.68178      0.0664         4.9599736     -41427.365     -36461.779      31.048741      31.081119      61.675131    
   993.152     -32729.745      31.048741      31.081119      61.073648    
     14100   252.30804      0.0564         4.3265421     -37377.831     -32955.036      31.048741      31.081119      61.096782    
     14200   251.09506      0.0568         4.4031831     -37968.064     -33058.788      31.048741      31.081119      61.119916    
     14300   251.25196      0.0572         4.383036      -38035.879     -33203.002      31.048741      31.081119      61.14305     
     14400   255.03286      0.0576         4.4666288          17100   259.47122      0.0684         4.9939668     -42422.52      -37190.119      31.048741      31.081119      61.790801    
     17200   249.90881      0.0688         4.9195376     -42135.896     -36979.477      31.048741      31.081119      61.813935    
     17300   249.19887      0.0692         5.0018276     -42654.665     -37738.163      31.048741      31.081119      61.837069    
     17400   255.92827      0.0696         4.972799      -42523.425     -37547.346      31.048741      31.081119      61.860203    
     17500   259.03475      0.07           5.0662873     -43266.151     -37763.75       31.048741      31.081119      61.883337    
     17600   246.34965      0.0704         5.1143027     -43238.402     -38169.528      31.048741      31.081119      61.906471    
     17700   256.03953      0.0708         5.1109607     -43501.527     -38325.487      31.048741      31.081119      61.929605    
     17800   248.91199      0.0712         5.1206104     -43361.512     -37881.597      31.048741      31.081119      61.952739    
     17900   250.79643      0.0716         5.1926176     -43645.98      -38618.362      31.048741      31.081119      61.975873    
     18000   257.2317       0.072          5.1533159     -43244.586     -38002.359      31.048741      31.081119      61.999007    
     18100   248.24976      0.0724         5.2702955     -44006.278     -39135.806      31.048741      31.081119      62.022141    
     18200   252.79413      0.0728         5.2360557     -44041.389     -38522.017      31.048741      31.081119      62.045275    
     18300   257.80462      0.0732         5.206647      -43730.916     -38790.385      31.048741      31.081119      62.068408    
     18400   249.20252      0.0736         5.1021806     -42837.336     -38235.3        31.048741      31.081119      62.091542    
     18500   247.61186      0.074          5.1548504     -42994.309     -38139.368      31.048741      31.081119      62.114676    
     18600   252.49625      0.0744         5.1314495     -42961.721     -37962.974      31.048741      31.081119      62.13781     
     18700   252.89891      0.0748         5.0867025     -43047.657     -37653.724      31.048741      31.081119      62.160944    
     18800   251.29433      0.0752         5.1798294     -43453.247     -38492.219      31.048741      31.081119      62.184078    
     18900   250.85132      0.0756         5.1427061     -43228.749     -38485.652      31.048741      31.081119      62.207212    
     19000   255.46091      0.076          5.1437266     -43427.346     -38107.319      31.048741      31.081119      62.230346    
     19100   251.29706      0.0764         5.125707      -42912.433     -38121.011      31.048741      31.081119      62.25348     
     19200   251.26372      0.0768         5.1315212     -43021.124     -37446.822      31.048741      31.081119      62.276614    
     19300   245.47512      0.0772         5.0694266     -42892.085     -37665.318      31.048741      31.081119      62.299748    
     19400   251.61394      0.0776         4.9172094     -41707.85      -36379.949      31.048741      31.081119      62.322882    
     19500   254.47971      0.078          4.7987101     -40661.438     -36242.014      31.048741      31.081119      62.346016    
     19600   250.37699      0.0784         4.7615166     -39214.045     -34577.981      31.048741      31.081119      62.36915     
     19700   257.02847      0.0788         4.4350576     -36933.484     -33569.096      31.048741      31.081119      62.392284    
     1952      -37190.119      31.048741      31.081119      61.790801    
     17200   249.90881      0.0688         4.9195376     -42135.896     -36979.477      31.048741      31.081119      61.813935    
     17300   249.19887      0.0692         5.0018276     -42654.665     -37738.163      31.048741      31.081119      61.837069    
     17400   255.92827      0.0696         4.972799      -42523.425     -37547.346      31.048741      31.081119      61.860203    
     17500   259.03475      0.07           5.0662873          20200   252.65686      0.0808         2.913489      -26201.682     -23430.67       31.048741      31.081119      62.507954    
     20300   253.72339      0.0812         2.5075761     -23640.11      -22127.47       31.048741      31.081119      62.531088    
     20400   251.3681       0.0816         2.1561709     -21911.543     -19807.454      31.048741      31.081119      62.554222    
     20500   252.14122      0.082          2.0410885     -20400.97      -18773.893      31.048741      31.081119      62.577356    
     20600   252.19584      0.0824         1.8642347     -19426.508     -17980.296      31.048741      31.081119      62.60049     
     20700   248.78232      0.0828         1.7666331     -18592.754     -17286.699      31.048741      31.081119      62.623623    
     20800   250.38424      0.0832         1.6425088     -18034.862     -16518.465      31.048741      31.081119      62.646757    
     20900   253.82812      0.0836         1.7377813     -18222.67      -16955.841      31.048741      31.081119      62.669891    
     21000   259.94944      0.084          1.6224503     -17437.246     -16174.9        31.048741      31.081119      62.693025    
     21100   252.19916      0.0844         1.6754291     -17046.077     -15980.693      31.048741      31.081119      62.716159    
     21200   252.5383       0.0848         1.7503027     -17937.535     -17043.119      31.048741      31.081119      62.739293    
     21300   246.80988      0.0852         1.8562832     -18783.411     -17287.679      31.048741      31.081119      62.762427    
     21400   251.45203      0.0856         1.9240135     -19436.138     -17751.646      31.048741      31.081119      62.785561    
     21500   257.49423      0.086          2.0051604     -19230.489     -17964.826      31.048741      31.081119      62.808695    
     21600   246.17996      0.0864         1.8755544     -18575.116     -17390.81       31.048741      31.081119      62.831829    
     21700   252.80105      0.0868         1.8889948     -18400.785     -16709.921      31.048741      31.081119      62.854963    
     21800   248.71531      0.0872         1.819325      -18642.725     -15772.323      31.048741      31.081119      62.878097    
     21900   250.14625      0.0876         1.7313009     -17214.671     -15273.186      31.048741      31.081119      62.901231    
     22000   252.06092      0.088          1.6356492     -16641.592     -14013.46       31.048741      31.081119      62.924365    
     22100   247.4032       0.0884         1.5311921     -16090.463     -14156.722      31.048741      31.081119      62.947499    
     22200   251.1748       0.0888         1.7005514     -16972.747     -14720.21       31.048741      31.081119      62.970633    
     22300   252.64112      0.0892         1.6640395     -16718.57      -14001.222      31.048741      31.081119      62.993767    
     22400   253.36362      0.0896         1.7869816     -17547.47      -14945.244      31.048741      31.081119      63.016901    
     22500   249.95632      0.09           1.848604      -18209.368     -15883.99       31.048741      31.081119      63.040035    
     22600   255.4584       0.0904         1.897807      -18073.278     -15663.033      31.048741      31.081119      63.063169    
     22700   252.92492      0.0908         1.8984246     -17862.317     -15943.963      31.048741      31.081119      63.086303    
     22800   253.12128      0.0912         2.1194254     -20312.541     -17234.8        31.048741      31.081119      63.109437    
     22900     -23430.67       31.048741      31.081119      62.507954    
     20300   253.72339      0.0812         2.5075761     -23640.11      -22127.47       31.048741      31.081119      62.531088    
     20400   251.3681       0.0816         2.1561709     -21911.543     -19807.454      31.048741      31.081119      62.554222    
     20500   252.14122      0.082          2.0410885     -20400.97      -18773.893      31.048741      31.081119      62.577356    
     20600   252.19584      0.0824         1.8642347          23300   258.84923      0.0932         1.8713794     -17861.232     -15750.138      31.048741      31.081119      63.225106    
     23400   251.37189      0.0936         1.8382134     -17596.522     -15295.766      31.048741      31.081119      63.24824     
     23500   255.45025      0.094          1.7483926     -16300.625     -14930.036      31.048741      31.081119      63.271374    
     23600   254.52593      0.0944         1.700239      -15928.511     -13633.615      31.048741      31.081119      63.294508    
     23700   258.52401      0.0948         1.8013158     -16964.516     -14518.71       31.048741      31.081119      63.317642    
     23800   244.48557      0.0952         1.8673461     -17288.793     -15324.154      31.048741      31.081119      63.340776    
     23900   255.19901      0.0956         1.9169855     -17905.631     -15218.293      31.048741      31.081119      63.36391     
     24000   252.50995      0.096          1.9109653     -17809.227     -15394.306      31.048741      31.081119      63.387044    
     24100   248.14364      0.0964         1.9603755     -18376.277     -16317.119      31.048741      31.081119      63.410178    
     24200   256.68521      0.0968         2.0834456     -18829.475     -17277.324      31.048741      31.081119      63.433312    
     24300   252.462        0.0972         2.1617333     -19150.813     -17532.938      31.048741      31.081119      63.456446    
     24400   245.57271      0.0976         2.2099511     -19740.349     -17033.797      31.048741      31.081119      63.47958     
     24500   249.86677      0.098          2.1340496     -18957.696     -16470.388      31.048741      31.081119      63.502714    
     24600   252.44263      0.0984         2.0875589     -19099.702     -16530.84       31.048741      31.081119      63.525848    
     24700   251.69617      0.0988         2.0245626     -19000.843     -16528.95       31.048741      31.081119      63.548982    
     24800   250.47594      0.0992         1.9545554     -18839.748     -15941.652      31.048741      31.081119      63.572116    
     24900   255.19054      0.0996         1.8699619     -17144.472     -14840.741      31.048741      31.081119      63.59525     
     25000   247.4535       0.1            1.8247168     -16499.069     -14462.395      31.048741      31.081119      63.618384    
     25100   255.66426      0.1004         1.7904431     -16508.301     -14478.428      31.048741      31.081119      63.641518    
     25200   260.9856       0.1008         1.8419727     -16861.364     -14373.842      31.048741      31.081119      63.664652    
     25300   255.07313      0.1012         1.9637009     -18158.742     -14833.645      31.048741      31.081119      63.687786    
     25400   250.25027      0.1016         1.9365752     -17356.307     -14960.314      31.048741      31.081119      63.710919    
     25500   255.45439      0.102          1.9724153     -17789.625     -15375.565      31.048741      31.081119      63.734053    
     25600   246.71982      0.1024         2.0243714     -18430.025     -16288.186      31.048741      31.081119      63.757187    
     25700   245.37687      0.1028         2.0095534     -17306.556     -15370.484      31.048741      31.081119      63.780321    
     25800   259.26897      0.1032         2.0004847     -18432.835     -15641.177      31.048741      31.081119      63.803455    
     25900   245.17167      0.1036         1.9973044     -18326.676     -15889.987      31.048741      31.081119      63.826589    
     26000   25-15750.138      31.048741      31.081119      63.225106    
     23400   251.37189      0.0936         1.8382134     -17596.522     -15295.766      31.048741      31.081119      63.24824     
     23500   255.45025      0.094          1.7483926     -16300.625     -14930.036      31.048741      31.081119      63.271374    
     23600   254.52593      0.0944         1.700239      -15928.511     -13633.615      31.048741      31.081119      63.294508    
     23700   258.52401      0.0948         1.8013158          26400   253.63948      0.1056         1.6432315     -14383.597     -13137.574      31.048741      31.081119      63.942259    
     26500   253.51313      0.106          1.6175015     -15157.896     -13154.616      31.048741      31.081119      63.965393    
     26600   258.21106      0.1064         1.5813535     -14697.753     -12654.797      31.048741      31.081119      63.988527    
     26700   255.62756      0.1068         1.6190665     -15248.387     -13335.496      31.048741      31.081119      64.011661    
     26800   246.67243      0.1072         1.5530589     -15066.896     -13460.12       31.048741      31.081119      64.034795    
     26900   248.55044      0.1076         1.5411749     -14697.048     -13636.754      31.048741      31.081119      64.057929    
     27000   257.89591      0.108          1.4118249     -13715.21      -12286.543      31.048741      31.081119      64.081063    
     27100   249.50353      0.1084         1.4749717     -13951.136     -13461.118      31.048741      31.081119      64.104197    
     27200   257.79368      0.1088         1.5049876     -13517.42      -12955.715      31.048741      31.081119      64.127331    
     27300   252.86264      0.1092         1.3816292     -13267.006     -11952.11       31.048741      31.081119      64.150465    
     27400   249.13823      0.1096         1.3801233     -13544.532     -12642.995      31.048741      31.081119      64.173599    
     27500   248.12058      0.11           1.4013111     -12917.05      -12171.736      31.048741      31.081119      64.196733    
     27600   255.34029      0.1104         1.397293      -13096.744     -12482.987      31.048741      31.081119      64.219867    
     27700   251.9551       0.1108         1.3295274     -13077.057     -12243.545      31.048741      31.081119      64.243001    
     27800   254.56741      0.1112         1.2806241     -12948.616     -12540.655      31.048741      31.081119      64.266134    
     27900   260.53485      0.1116         1.3187486     -13145.864     -12341.396      31.048741      31.081119      64.289268    
     28000   262.05751      0.112          1.2340474     -12654.181     -12341.63       31.048741      31.081119      64.312402    
     28100   250.30145      0.1124         1.2389477     -12771.269     -11954.98       31.048741      31.081119      64.335536    
     28200   250.67969      0.1128         1.2474077     -13203.541     -12258.083      31.048741      31.081119      64.35867     
     28300   258.8444       0.1132         1.1281706     -11866.088     -10926.453      31.048741      31.081119      64.381804    
     28400   251.49512      0.1136         1.2018003     -12160.032     -10567.468      31.048741      31.081119      64.404938    
     28500   248.7228       0.114          1.2779436     -12485.992     -10792.965      31.048741      31.081119      64.428072    
     28600   252.6225       0.1144         1.2245785     -11951.636     -10802.884      31.048741      31.081119      64.451206    
     28700   252.86864      0.1148         1.2982218     -12703.954     -11178.409      31.048741      31.081119      64.47434     
     28800   253.62299      0.1152         1.3518069     -13486.081     -12347.59       31.048741      31.081119      64.497474    
     28900   250.98986      0.1156         1.2922676     -12813.713     -12045.419      31.048741      31.081119      64.520608    
     29000   253.87912      0.116          1.3120028     -13327.021     -11552.431      31.048741      31.081119      64.543742    
     29100   255.9737.574      31.048741      31.081119      63.942259    
     26500   253.51313      0.106          1.6175015     -15157.896     -13154.616      31.048741      31.081119      63.965393    
     26600   258.21106      0.1064         1.5813535     -14697.753     -12654.797      31.048741      31.081119      63.988527    
     26700   255.62756      0.1068         1.6190665     -15248.387     -13335.496      31.048741      31.081119      64.011661    
     26800   246.67243      0.1072         1.5530589          29500   250.57851      0.118          1.2940396     -13261.417     -11340.663      31.048741      31.081119      64.659412    
     29600   248.68532      0.1184         1.2979115     -13219.146     -11550.546      31.048741      31.081119      64.682546    
     29700   252.16284      0.1188         1.2741129     -12452.175     -10366.51       31.048741      31.081119      64.70568     
     29800   249.82605      0.1192         1.2098275     -12070.838     -10351.464      31.048741      31.081119      64.728814    
     29900   248.51343      0.1196         1.2440943     -12898.798     -10552.072      31.048741      31.081119      64.751948    
     30000   257.32148      0.12           1.1255603     -11599.502     -11022.629      31.048741      31.081119      64.775082    
     30100   249.15201      0.1204         1.1303604     -11817.499     -10392.395      31.048741      31.081119      64.798215    
     30200   250.14162      0.1208         1.2616638     -12771.734     -11513.193      31.048741      31.081119      64.821349    
     30300   257.56338      0.1212         1.3309781     -13393.133     -11793.149      31.048741      31.081119      64.844483    
     30400   254.13225      0.1216         1.3827631     -13728.1       -12050.117      31.048741      31.081119      64.867617    
     30500   248.627        0.122          1.314899      -13031.172     -11888.511      31.048741      31.081119      64.890751    
     30600   251.40211      0.1224         1.2616431     -12992.364     -11544.409      31.048741      31.081119      64.913885    
     30700   254.32651      0.1228         1.4246741     -13869.476     -12061.096      31.048741      31.081119      64.937019    
     30800   253.58384      0.1232         1.4125278     -13195.66      -11783.353      31.048741      31.081119      64.960153    
     30900   253.13163      0.1236         1.3187219     -13247.124     -11290.938      31.048741      31.081119      64.983287    
     31000   253.92106      0.124          1.346993      -13197.465     -11205.806      31.048741      31.081119      65.006421    
     31100   251.67918      0.1244         1.3390895     -13541.174     -11736.95       31.048741      31.081119      65.029555    
     31200   250.84866      0.1248         1.3389298     -13225.089     -11428.647      31.048741      31.081119      65.052689    
     31300   251.00776      0.1252         1.4425392     -13823.356     -11689.495      31.048741      31.081119      65.075823    
     31400   248.65369      0.1256         1.382729      -12731.667     -10914.575      31.048741      31.081119      65.098957    
     31500   250.2392       0.126          1.4413535     -13965.833     -12001.3        31.048741      31.081119      65.122091    
     31600   258.44692      0.1264         1.4844224     -13868.759     -11849.354      31.048741      31.081119      65.145225    
     31700   252.47597      0.1268         1.4724131     -14041.039     -12263.991      31.048741      31.081119      65.168359    
     31800   250.44826      0.1272         1.5367141     -14837.797     -12630.886      31.048741      31.081119      65.191493    
     31900   251.31894      0.1276         1.4931638     -14354.013     -12252.796      31.048741      31.081119      65.214627    
     32000   249.18121      0.128          1.6026296     -14441.483     -12434.657      31.048741      31.081119      65.237761    
     32100   250.03509      0.1284         1.5929015     -14445.796     -12955.696      31.048741      31.081119      65.260895    
     32200   252.98068 63      31.048741      31.081119      64.659412    
     29600   248.68532      0.1184         1.2979115     -13219.146     -11550.546      31.048741      31.081119      64.682546    
     29700   252.16284      0.1188         1.2741129     -12452.175     -10366.51       31.048741      31.081119      64.70568     
     29800   249.82605      0.1192         1.2098275     -12070.838     -10351.464      31.048741      31.081119      64.728814    
     29900   248.51343      0.1196         1.2440943          32600   252.83692      0.1304         1.4228219     -13293.43      -11060.703      31.048741      31.081119      65.376564    
     32700   253.25208      0.1308         1.4469016     -13738.46      -12252.553      31.048741      31.081119      65.399698    
     32800   255.53482      0.1312         1.5237495     -14793.283     -12375.641      31.048741      31.081119      65.422832    
     32900   250.33448      0.1316         1.3979703     -13657.468     -11824.642      31.048741      31.081119      65.445966    
     33000   253.37195      0.132          1.4780448     -14622.978     -12075.781      31.048741      31.081119      65.4691      
     33100   245.91514      0.1324         1.4905609     -14464.983     -12070.942      31.048741      31.081119      65.492234    
     33200   254.39023      0.1328         1.3890254     -13504.045     -11542.896      31.048741      31.081119      65.515368    
     33300   248.61327      0.1332         1.4582439     -14729.795     -12107.101      31.048741      31.081119      65.538502    
     33400   254.71241      0.1336         1.5181995     -14221.396     -12669.819      31.048741      31.081119      65.561636    
     33500   249.467        0.134          1.3609643     -13852.35      -11858.677      31.048741      31.081119      65.58477     
     33600   254.76464      0.1344         1.3161778     -13197.927     -11079.412      31.048741      31.081119      65.607904    
     33700   249.90988      0.1348         1.2000046     -12674.457     -10937.98       31.048741      31.081119      65.631038    
     33800   251.72469      0.1352         1.3353953     -13323.164     -11202.095      31.048741      31.081119      65.654172    
     33900   254.48713      0.1356         1.4040468     -13653.804     -11567.304      31.048741      31.081119      65.677306    
     34000   249.55753      0.136          1.512763      -14273.476     -12325.077      31.048741      31.081119      65.70044     
     34100   255.98076      0.1364         1.4164757     -13730.322     -11842.412      31.048741      31.081119      65.723574    
     34200   254.74405      0.1368         1.4845907     -13443.676     -11389.845      31.048741      31.081119      65.746708    
     34300   250.93863      0.1372         1.6323025     -15523.114     -12702.684      31.048741      31.081119      65.769842    
     34400   250.80938      0.1376         1.5922988     -14949.92      -12418.01       31.048741      31.081119      65.792976    
     34500   252.54773      0.138          1.6066874     -14585.187     -12939.107      31.048741      31.081119      65.81611     
     34600   251.03826      0.1384         1.6784767     -15323.782     -13200.055      31.048741      31.081119      65.839244    
     34700   248.9835       0.1388         1.7278234     -15718.609     -13751.323      31.048741      31.081119      65.862378    
     34800   250.38948      0.1392         1.5682767     -14645.916     -12428.004      31.048741      31.081119      65.885512    
     34900   256.45561      0.1396         1.4403242     -13520.094     -11371.662      31.048741      31.081119      65.908645    
     35000   253.54061      0.14           1.3313313     -12946.044     -10746.248      31.048741      31.081119      65.931779    
     35100   252.30386      0.1404         1.3444017     -12852.796     -10687.315      31.048741      31.081119      65.954913    
     35200   253.74603      0.1408         1.3598921     -12917.474     -11532.533      31.048741      31.081119      65.978047    
     35300   253.4034          31.048741      31.081119      65.376564    
     32700   253.25208      0.1308         1.4469016     -13738.46      -12252.553      31.048741      31.081119      65.399698    
     32800   255.53482      0.1312         1.5237495     -14793.283     -12375.641      31.048741      31.081119      65.422832    
     32900   250.33448      0.1316         1.3979703     -13657.468     -11824.642      31.048741      31.081119      65.445966    
     33000   253.37195      0.132          1.4780448          35700   254.00591      0.1428         1.583834      -14161.584     -12672.159      31.048741      31.081119      66.093717    
     35800   251.95208      0.1432         1.538842      -14407.785     -12081.273      31.048741      31.081119      66.116851    
     35900   251.35931      0.1436         1.5272439     -14431.09      -11860.421      31.048741      31.081119      66.139985    
     36000   253.02183      0.144          1.4920024     -14361.761     -12160.008      31.048741      31.081119      66.163119    
     36100   257.75899      0.1444         1.6291689     -14322.891     -12679.781      31.048741      31.081119      66.186253    
     36200   253.03734      0.1448         1.5213615     -13881.35      -12540.545      31.048741      31.081119      66.209387    
     36300   259.49605      0.1452         1.3446624     -12690.592     -11216.515      31.048741      31.081119      66.232521    
     36400   250.66784      0.1456         1.2910036     -12416.613     -11036.779      31.048741      31.081119      66.255655    
     36500   254.58926      0.146          1.2143167     -12358.417     -10566.004      31.048741      31.081119      66.278789    
     36600   251.01964      0.1464         1.1272787     -11939.965     -9936.7024      31.048741      31.081119      66.301923    
     36700   257.09933      0.1468         1.0298265     -10912.24      -9554.4912      31.048741      31.081119      66.325057    
     36800   252.8832       0.1472         0.98617452    -11617.477     -9311.4116      31.048741      31.081119      66.348191    
[...]
     57900   252.12798      0.2316         0.49788827    -6983.5844     -5336.0612      31.048741      31.081119      71.229456    
     58000   249.9636       0.232          0.53252377    -7236.626      -5874.8065      31.048741      31.081119      71.25259     
     58100   254.36978      0.2324         0.46257289    -6861.8465     -4848.3529      31.048741      31.081119      71.275724    
     58200   252.09751      0.2328         0.49225311    -7667.9492     -5852.1444      31.048741      31.081119      71.298858    
     58300   248.85994      0.2332         0.51523163    -7457.8246     -5711.6387      31.048741      31.081119      71.321992    
     58400   246.91124      0.2336         0.52582394    -7021.6457     -5513.4169      31.048741      31.081119      71.345126    
     58500   251.12326      0.234          0.6028608     -7826.055      -6084.7253      31.048741      31.081119      71.368259    
     58600   247.83471      0.2344         0.61343818    -7710.4502     -6354.5623      31.048741      31.081119      71.391393    
     58700   255.27245      0.2348         0.63991011    -8197.1334     -6520.3907      31.048741      31.081119      71.414527    
     58800   252.92479      0.2352         0.55711239    -7365.4368     -6074.4441      31.048741      31.081119      71.437661    
     58900   249.52473      0.2356         0.60774615    -8139.1607     -6302.2657      31.048741      31.081119      71.460795    
     59000   252.3339       0.236          0.66583099    -7841.7195     -6555.0808      31.048741      31.081119      71.483929    
     59100   259.50436      0.2364         0.76440074    -8464.0119     -6822.8658      31.048741      31.081119      71.507063    
     59200   245.99578      0.2368         0.68664633    -8077.8849     -6947.8265      31.048741      31.081119      71.530197    
     59300   241.79775      0.2372         0.55711893    -7158.3842     -5934.9539      31.048741      31.081119      71.553331    
     59400   254.41232      0.2376         0.53468163    -7613.4121     -6462.6863      31.048741      31.081119      71.576465    
     59500   252.28482      0.238          0.49639015    -6733.0834     -5128.2705      31.048741      31.081119      71.599599    
     59600   244.94917      0.2384         0.55294231    -6845.0323     -5457.7305      31.048741      31.081119      71.622733    
     59700   251.82951      0.2388         0.56208502    -7226.1404     -6056.4531      31.048741      31.081119      71.645867    
     59800   258.34665      0.2392         0.55492773    -7566.0491     -6077.0092      31.048741      31.081119      71.669001    
     59900   248.4699       0.2396         0.66120652    -7892.278      -6258.2472      31.048741      31.081119      71.692135    
     60000   249.07956      0.24           0.64437166    -7774.1889     -7130.8613      31.048741      31.081119      71.715269    
     60100   252.89915      0.2404         0.68599283    -8  71.113786    
     57500   249.82845      0.23           0.5943914     -7231.4944     -6100.463       31.048741      31.081119      71.13692     
     57600   251.09476      0.2304         0.6095983     -7585.9857     -6061.9021      31.048741      31.081119      71.160054    
     57700   252.14196      0.2308         0.60864751    -7865.2872     -6561.3727      31.048741      31.081119      71.183188    
     57800   257.89625      0.2312         0.5836921          60500   254.48208      0.242          0.73343353    -8342.2222     -6773.4084      31.048741      31.081119      71.830939    
     60600   252.49008      0.2424         0.77785837    -8885.4935     -7710.2651      31.048741      31.081119      71.854073    
     60700   258.17342      0.2428         0.60768085    -7520.1801     -6265.9368      31.048741      31.081119      71.877207    
     60800   254.40831      0.2432         0.58008762    -7170.2961     -5681.8609      31.048741      31.081119      71.900341    
     60900   246.44913      0.2436         0.47732475    -7241.4649     -5796.9768      31.048741      31.081119      71.923474    
     61000   256.134        0.244          0.45118868    -6323.6276     -5006.1164      31.048741      31.081119      71.946608    
     61100   252.86501      0.2444         0.47238607    -6890.5241     -5407.2989      31.048741      31.081119      71.969742    
     61200   253.69985      0.2448         0.50361946    -7122.5126     -5941.8354      31.048741      31.081119      71.992876    
     61300   256.08098      0.2452         0.51918813    -7469.0226     -5898.7924      31.048741      31.081119      72.01601     
     61400   254.21846      0.2456         0.5242239     -7534.0188     -6100.8486      31.048741      31.081119      72.039144    
     61500   251.67194      0.246          0.46860667    -6956.0662     -5594.7753      31.048741      31.081119      72.062278    
     61600   249.56331      0.2464         0.40474479    -6559.1859     -5201.6525      31.048741      31.081119      72.085412    
     61700   252.69081      0.2468         0.44382299    -6628.6237     -5205.0805      31.048741      31.081119      72.108546    
     61800   252.04118      0.2472         0.39548896    -6373.6333     -4999.2213      31.048741      31.081119      72.13168     
     61900   257.48737      0.2476         0.40291755    -6379.5106     -5156.96        31.048741      31.081119      72.154814    
     62000   251.79872      0.248          0.48589585    -7021.0497     -5207.9161      31.048741      31.081119      72.177948    
     62100   255.0909       0.2484         0.36778502    -6416.1195     -5274.4639      31.048741      31.081119      72.201082    
     62200   256.43268      0.2488         0.33848663    -5886.9715     -4230.2014      31.048741      31.081119      72.224216    
     62300   254.35621      0.2492         0.40102854    -6511.258      -5437.0298      31.048741      31.081119      72.24735     
     62400   252.03774      0.2496         0.22001879    -5788.888      -3955.8755      31.048741      31.081119      72.270484    
     62500   256.91557      0.25           0.3515157     -6562.9964     -4347.216       31.048741      31.081119      72.293618    
     62600   247.51993      0.2504         0.34018368    -6443.1857     -4583.4964      31.048741      31.081119      72.316752    
     62700   250.59725      0.2508         0.35239852    -6524.9677     -5095.8827      31.048741      31.081119      72.339886    
     62800   256.80874      0.2512         0.37569953    -6541.8478     -4914.5071      31.048741      31.081119      72.36302     
     62900   252.11818      0.2516         0.37889229    -6825.8149     -5040.8829      31.048741      31.081119      72.386154    
     63000   252.11817      0.252          0.27502542    -6188.1984     -4638.9959      31.048741      31.081119      72.409288    
     63100   253.10711      0.2524         0.1406087     -4983.0386     -3581.6602      31.048741      31.081119      72.432422    
     63200   249.65357      0.2528         0.28174193    -5586..830939    
     60600   252.49008      0.2424         0.77785837    -8885.4935     -7710.2651      31.048741      31.081119      71.854073    
     60700   258.17342      0.2428         0.60768085    -7520.1801     -6265.9368      31.048741      31.081119      71.877207    
     60800   254.40831      0.2432         0.58008762    -7170.2961     -5681.8609      31.048741      31.081119      71.900341    
     60900   246.44913      0.2436         0.47732475         63600   254.04819      0.2544         0.14018429    -4863.1719     -3399.7235      31.048741      31.081119      72.548091    
     63700   253.97079      0.2548         0.19801398    -4765.5597     -3708.6031      31.048741      31.081119      72.571225    
     63800   248.36515      0.2552         0.24151145    -5324.108      -3628.2015      31.048741      31.081119      72.594359    
     63900   253.84735      0.2556         0.21276835    -5213.3767     -3715.7068      31.048741      31.081119      72.617493    
     64000   253.2293       0.256          0.33005612    -6842.5047     -4988.9474      31.048741      31.081119      72.640627    
     64100   250.21435      0.2564         0.40565548    -7253.0717     -5373.7413      31.048741      31.081119      72.663761    
     64200   256.87513      0.2568         0.44100605    -6766.0873     -5654.7603      31.048741      31.081119      72.686895    
     64300   255.00337      0.2572         0.40233621    -7040.021      -5445.6474      31.048741      31.081119      72.710029    
     64400   250.60103      0.2576         0.27467489    -6090.8642     -4530.9094      31.048741      31.081119      72.733163    
     64500   248.48284      0.258          0.27260779    -5680.552      -4372.9581      31.048741      31.081119      72.756297    
     64600   253.71959      0.2584         0.2676833     -5355.1615     -4294.1893      31.048741      31.081119      72.779431    
     64700   257.83603      0.2588         0.26663592    -5806.1886     -4512.0784      31.048741      31.081119      72.802565    
     64800   256.38355      0.2592         0.29876411    -6083.2942     -4799.2313      31.048741      31.081119      72.825699    
     64900   250.37175      0.2596         0.19342271    -5125.9746     -3659.5219      31.048741      31.081119      72.848833    
     65000   250.28359      0.26           0.18826534    -5272.3844     -4100.1828      31.048741      31.081119      72.871967    
     65100   248.36787      0.2604         0.17494479    -5119.6413     -3377.5942      31.048741      31.081119      72.895101    
     65200   252.6555       0.2608         0.14862731    -5193.0215     -3625.3509      31.048741      31.081119      72.918235    
     65300   249.01373      0.2612         0.23082662    -5489.2671     -3709.0527      31.048741      31.081119      72.941369    
     65400   247.1465       0.2616         0.37436742    -6044.8254     -4944.6629      31.048741      31.081119      72.964503    
     65500   246.52202      0.262          0.35907447    -6542.5275     -4777.351       31.048741      31.081119      72.987637    
     65600   259.18665      0.2624         0.3952163     -6554.5788     -5647.4729      31.048741      31.081119      73.01077     
     65700   245.25624      0.2628         0.37739417    -6520.0531     -4991.6995      31.048741      31.081119      73.033904    
     65800   253.56926      0.2632         0.30583956    -6548.9738     -5081.7614      31.048741      31.081119      73.057038    
     65900   246.91493      0.2636         0.27137584    -6063.3264     -4424.1373      31.048741      31.081119      73.080172    
     66000   251.79309      0.264          0.35444411    -6524.1486     -5191.4664      31.048741      31.081119      73.103306    
     66100   248.39252      0.2644         0.25889989    -6312.7075     -4267.6015      31.048741      31.081119      73.12644     
     66200   253.89189      0.2648         0.18365219    -5341.7113     -3472.1188      31.048741      31.081119      73.149574    
     66300   252.9649       0.2652         0.14049607    -5162.4652091    
     63700   253.97079      0.2548         0.19801398    -4765.5597     -3708.6031      31.048741      31.081119      72.571225    
     63800   248.36515      0.2552         0.24151145    -5324.108      -3628.2015      31.048741      31.081119      72.594359    
     63900   253.84735      0.2556         0.21276835    -5213.3767     -3715.7068      31.048741      31.081119      72.617493    
     64000   253.2293       0.256          0.33005612         66700   255.34272      0.2668         0.20933862    -5537.0255     -3476.162       31.048741      31.081119      73.265244    
     66800   247.48926      0.2672         0.21605605    -5779.5421     -3992.338       31.048741      31.081119      73.288378    
     66900   257.98871      0.2676         0.35048762    -6603.6215     -4838.0908      31.048741      31.081119      73.311512    
     67000   252.86398      0.268          0.37271275    -6681.1555     -4934.2986      31.048741      31.081119      73.334646    
     67100   246.05354      0.2684         0.39370225    -6072.8982     -4230.5443      31.048741      31.081119      73.35778     
     67200   242.36068      0.2688         0.313957      -6138.7098     -4731.0118      31.048741      31.081119      73.380914    
     67300   248.49119      0.2692         0.21561057    -5697.7484     -3740.2238      31.048741      31.081119      73.404048    
     67400   263.53318      0.2696         0.2920397     -6006.1792     -4321.7616      31.048741      31.081119      73.427182    
     67500   250.36272      0.27           0.2461492     -5616.6389     -3751.6755      31.048741      31.081119      73.450316    
     67600   253.80157      0.2704         0.17857653    -5336.1516     -3686.0687      31.048741      31.081119      73.47345     
     67700   254.19699      0.2708         0.25027428    -5405.8231     -3870.7131      31.048741      31.081119      73.496584    
     67800   251.74686      0.2712         0.19971428    -5668.6739     -3967.5952      31.048741      31.081119      73.519718    
     67900   255.60074      0.2716         0.18122131    -5587.1662     -3765.0346      31.048741      31.081119      73.542852    
     68000   253.86405      0.272          0.14669479    -4788.8659     -3313.8593      31.048741      31.081119      73.565985    
     68100   257.7258       0.2724         0.23096175    -5656.9285     -3385.1521      31.048741      31.081119      73.589119    
     68200   247.48224      0.2728         0.2763569     -5941.1429     -4879.7812      31.048741      31.081119      73.612253    
     68300   252.54693      0.2732         0.338572      -6670.017      -5299.9694      31.048741      31.081119      73.635387    
     68400   251.22062      0.2736         0.35999936    -6553.4487     -4575.5997      31.048741      31.081119      73.658521    
     68500   250.29086      0.274          0.34330727    -6277.0636     -5079.7151      31.048741      31.081119      73.681655    
     68600   251.27806      0.2744         0.38467371    -6553.1583     -5103.783       31.048741      31.081119      73.704789    
     68700   252.64387      0.2748         0.28693333    -5997.5639     -3861.9843      31.048741      31.081119      73.727923    
     68800   253.0476       0.2752         0.30754699    -5964.4501     -4042.896       31.048741      31.081119      73.751057    
     68900   250.70302      0.2756         0.23482472    -5701.482      -4099.614       31.048741      31.081119      73.774191    
     69000   251.52576      0.276          0.25067562    -5509.6316     -3830.9505      31.048741      31.081119      73.797325    
     69100   249.15099      0.2764         0.28918788    -5727.1078     -4276.8277      31.048741      31.081119      73.820459    
     69200   247.12935      0.2768         0.26754011    -5672.1862     -3939.2009      31.048741      31.081119      73.843593    
Fix halt condition for fix-id halt_frac met on step 69300 with value 1
     69300   253.20279      0.2772         0.088946003   -4215.2871     -2649.8884      31.048741      31.081119      73.866727    
Loop time of 189.68 on 4 procs for 69300 steps with 4263 atoms

Performance: 63.133 ns/day, 0.380 hours/ns, 365.352 timesteps/s, 1.557 Matom-step/s
103.4% CPU use with 4 MPI tasks x 1 OpenMP threads

MPI task timing breakdown:
Section |  min time  |  avg time  |  max time  |%varavg| %total
---------------------------------------------------------------
Pair    | 108.99     | 143.32     | 176.26     | 230.5 | 75.56
Neigh   | 0.88186    | 1.8339     | 3.0451     |  64.5 |  0.97
Comm    | 4.8308     | 35.128     | 74.287     | 446.1 | 18.52
Output  | 2.2139     | 2.72       | 3.2284     |  22.3 |  1.43
Modify  | 1.7345     | 5.7641     | 17.622     | 285.2 |  3.04
Other   |            | 0.9089     |            |       |  0.48

Nlocal:        1065.75 ave        1584 max         315 min
Histogram: 1 0 0 0 0 0 1 1 0 1
Nghost:           2954 ave        3896 max        1878 min
Histogram: 1 0 1 0 0 0 0 0 1 1
Neighs:        93886.5 ave      172839 max       16055 min
Histogram: 1 0 0 1 0 0 1 0 0 1

Total # of neighbors = 375546
Ave neighs/atom = 88.0943
Neighbor list builds = 1161
Dangerous builds = 0
Total wall time: 0:03:53
86.0687      31.048741      31.081119      73.47345     
     67700   254.19699      0.2708         0.25027428    -5405.8231     -3870.7131      31.048741      31.081119      73.496584    
     67800   251.74686      0.2712         0.19971428    -5668.6739     -3967.5952      31.048741      31.081119      73.519718    
     67900   255.60074      0.2716         0.18122131    -5587.1662     -3765.0346      31.048741      31.081119      73.542852    
     68000   253.86405      0.272          0.14669479    -4788.8659     -3313.8593      31.048741      31.081119      73.565985    
     68100   257.7258       0.2724         0.23096175    -5656.9285     -3385.1521      31.048741      31.081119      73.589119    
     68200   247.48224      0.2728         0.2763569     -5941.1429     -4879.7812      31.048741      31.081119      73.612253    
     68300   252.54693      0.2732         0.338572      -6670.017      -5299.9694      31.048741      31.081119      73.635387    
     68400   251.22062      0.2736         0.35999936    -6553.4487     -4575.5997      31.048741      31.081119      73.658521    
     68500   250.29086      0.274          0.34330727    -6277.0636     -5079.7151      31.048741      31.081119      73.681655    
     68600   251.27806      0.2744         0.38467371    -6553.1583     -5103.783       31.048741      31.081119      73.704789    
     68700   252.64387      0.2748         0.28693333    -5997.5639     -3861.9843      31.048741      31.081119      73.727923    
     68800   253.0476       0.2752         0.30754699    -5964.4501     -4042.896       31.048741      31.081119      73.751057    
     68900   250.70302      0.2756         0.23482472    -5701.482      -4099.614       31.048741      31.081119      73.774191    
     69000   251.52576      0.276          0.25067562    -5509.6316     -3830.9505      31.048741      31.081119      73.797325    
     69100   249.15099      0.2764         0.28918788    -5727.1078     -4276.8277      31.048741      31.081119      73.820459    
     69200   247.12935      0.2768         0.26754011    -5672.1862     -3939.2009      31.048741      31.081119      73.843593    
Fix halt condition for fix-id halt_frac met on step 69300 with value 1
     69300   253.20279      0.2772         0.088946003   -4215.2871     -2649.8884      31.048741      31.081119      73.866727    
Loop time of 189.68 on 4 procs for 69300 steps with 4263 atoms

Performance: 63.133 ns/day, 0.380 hours/ns, 365.352 timesteps/s, 1.557 Matom-step/s
103.4% CPU use with 4 MPI tasks x 1 OpenMP threads

MPI task timing breakdown:
Section |  min time  |  avg time  |  max time  |%varavg| %total
---------------------------------------------------------------
Pair    | 108.99     | 143.32     | 176.26     | 230.5 | 75.56
Neigh   | 0.88186    | 1.8339     | 3.0451     |  64.5 |  0.97
Comm    | 4.8308     | 35.128     | 74.287     | 446.1 | 18.52
Output  | 2.2139     | 2.72       | 3.2284     |  22.3 |  1.43
Modify  | 1.7345     | 5.7641     | 17.622     | 285.2 |  3.04
Other   |            | 0.9089     |            |       |  0.48

Nlocal:        1065.75 ave        1584 max         315 min
Histogram: 1 0 0 0 0 0 1 1 0 1
Nghost:           2954 ave        3896 max        1878 min
Histogram: 1 0 1 0 0 0 0 0 1 1
Neighs:        93886.5 ave      172839 max       16055 min
Histogram: 1 0 0 1 0 0 1 0 0 1

Total # of neighbors = 375546
Ave neighs/atom = 88.0943
Neighbor list builds = 1161
Dangerous builds = 0
Total wall time: 0:03:53
