(written by ASE)

3864 atoms
2 atom types

0.0      28.758912319027587  xlo xhi
0.0      30.196583067908424  ylo yhi
0.0       63.91476110357533  zlo zhi

Atoms # atomic

     1   1   -0.031436215768298297    0.071761165579453126      33.789459159937969
     2   1       1.456402553058064      2.5521561838591653      33.914957065474773
     3   1      1.4139049110823383     0.80002139174583331      36.112257533747325
     4   1   -0.005257341432046315      3.2848977224605167      36.299972289194145
     5   1   -0.043085456281800424      1.7010731577814333      38.561052374627536
     6   1      1.4870682479923345      4.1599255190096258      38.665967798141473
     7   1    0.071016294426177698    0.025346214944004151      40.842768241028864
     8   1      1.3808779352460741      2.5593186909187327        40.8773207674096
     9   1      1.4317937017121616     0.88287264623678197      43.127376211510004
    10   1    0.075716042950264725       3.355143026398312      43.132034779530812
    11   1      0.1305730608170263      1.6968002297951448       45.52081542595954
    12   1      1.4681634770094167      4.2297600438825693      45.579401167415234
    13   1    0.020597189221532159   -0.034420744821188447      47.866839046726788
    14   1       1.550799848086887      2.5276485850436257      47.951706067779391
    15   1      1.4072500106883443     0.79503594967547497      50.207587493346807
    16   1   -0.037938819598455416      3.3934703995943583      50.199953809736762
    17   1  -0.0099058747023021993      1.6794309668025411      52.524834824828247
    18   1      1.3375889240087186      4.2197610822040579       52.58141905455166
    19   1    0.022071836842906596  -0.0088602914305922938      54.892832947137983
    20   1      1.4107375403225151      2.6183438556600338      54.910750482938973
    21   1      1.4270494246567618      0.7321580653884906      57.321761098966768
    22   1   0.0090403042040671285      3.3568889629758014      57.252876787386363
    23   1   -0.009906506105223839      1.6221393279131842      59.559924483719797
    24   1      1.4119554285524278      4.1573958142039968      59.537491480449667
    25   1  -0.0071157246493317441  -0.0033679501201401532      61.975352245467747
    26   1      1.4892250231827997      2.5063881152136207      61.918132413797025
    27   1   -0.021898960142825458       5.067666091651537       33.84574677577163
    28   1      1.5131931357990602      7.6396960613596239      33.878944413653343
    29   1      1.3792828864534654      5.7947645580910061      36.232504853042101
    30   1    0.035202975612226489      8.3631148791637901      36.245687953465534
    31   1  -0.0090949375744441268      6.7567980693767309      38.536811059943034
    32   1      1.3857999980773026      9.1974532571148373      38.570410988865483
    33   1     0.02307611111418879      5.0662672540362923      40.852010577713088
    34   1      1.3685489691712758      7.6395393695665108      40.872832969651796
    35   1      1.4419772917950622      5.8729445065557808      43.187777652126712
    36   1   -0.040267116669705678      8.4433145496385453      43.247245351590699
    37   1   -0.093479469877636154      6.7043914011977943      45.499766109143636
    38   1      1.4517610106069729      9.2870319506878918      45.410147637425155
    39   1    0.016751998285250331      5.0381698402052031      47.941586931778147
    40   1      1.4832027237406844      7.5065106471871186      47.806010853118032
    41   1      1.4500870368953553      5.8002273150744603      50.164435027784691
    42   1    0.020807023370432876      8.3361753441836584       50.28572956079276
    43   1    0.035079234183384517      6.7233497040395971      52.645616385396302
    44   1      1.4187628421749754      9.2908972478662086      52.574800902533859
    45   1   -0.013312884074418455      5.0111627641012886       54.91871639196016
    46   1      1.5407133157571982      7.5633513196779063      54.851062475440486
    47   1       1.402334129180379      5.7895015159335381      57.171152224604803
    48   1    0.037573660516625487      8.4153633941807815      57.267171780084752
    49   1   0.0098224094779654648      6.7852414798804936      59.565671515550342
    50   1      1.4503101772134239       9.298294131060441      59.587192686337083
    51   1  -0.0013467298163841138      5.0301673402940459       61.93933737394692
    52   1      1.4938271611789462      7.6179419513986746      61.923188106000616
    53   1    0.025067667889360653      10.042102987561522      33.870570943458958
    54   1      1.4971745118077209      12.653650299800718       33.78784331751222
    55   1      1.4281679433047134      10.911296122008309      36.211779458233373
    56   1    0.093085625158966775      13.395100713705302       36.23502280013637
    57   1   -0.059159332997172347      11.732931920231419      38.504603289161217
    58   1      1.4081864664428134      14.278811111237463      38.588172950545889
    59   1   -0.062992661605735814      10.090785770948964      40.875674377622914
    60   1      1.4550085934788337      12.618530682635896      40.870497530954509
    61   1      1.4389620611845235      10.878483082126019      43.115405515054618
    62   1    0.016691223795827229      13.402641692108221      43.171367170231022
    63   1   -0.062513745593913275      11.589406044223409      45.631905919804922
    64   1      1.4649903949216394      14.246573817325253      45.429821590216818
    65   1     0.14390295127530195      10.079663279916643      47.940863071862331
    66   1      1.4051513483675797      12.599875415000437      47.858042380121816
    67   1      1.4245655281054352      10.876221968301783      50.165395736426291
    68   1   -0.011470281478366215      13.351458903703666      50.234597158739696
    69   1   0.0016400900651746429      11.756331514379633      52.595116184110964
    70   1      1.3485050786322912      14.291097445672236      52.645099921676952
    71   1  -0.0070972351105340814      10.075626065335232       54.92367372550634
    72   1      1.5191348720528939      12.510913656306302      54.974813120854428
    73   1      1.3826181805760469      10.930798181156179      57.175893468606048
    74   1     0.02163316737368827      13.414924539239406       57.27781183279977
    75   1    0.043885479601069928      11.715655915703946      59.555158235960974
    76   1      1.4068875099117988      14.276549769585287      59.592972796331416
    77   1    -0.02490535471634768      10.045357204935144      61.930783286976329
    78   1      1.4694350256738049      12.618519188032131      61.897980747231621
    79   1     0.03893641716228699      15.099192205759149      33.821042373320914
    80   1      1.4344261272204137      17.680937468055692      33.764034147450829
    81   1      1.4600152636730614      16.000630544681769      36.188980166584187
    82   1    0.038954089064640748      18.401512081349946      36.234449619328856
    83   1  -0.0087234820742836637      16.846315823851423      38.507910125141336
    84   1      1.4604630579249296      19.348235711725465      38.490008486449163
    85   1    0.050340320000750872      15.093200112854264      40.854606413339383
    86   1       1.450070706653571      17.573904200027947      40.876067095922224
    87   1      1.5323205859055864       16.00904920891961      43.251297872468982
    88   1    0.072228922082743521      18.395375902081529      43.161793373709656
    89   1    0.034061697662416672      16.705335775140785      45.507486833360787
    90   1      1.3545525871537401       19.29536750182368      45.604985987115192
    91   1   -0.057366563496851354      15.106516607816388      47.936931317727868
    92   1      1.3633170494372266      17.623405204547659      47.911142586874554
    93   1      1.4048824118228651      15.917759521906238      50.217405958020102
    94   1  0.00014760180305704293      18.417531527043504      50.269876115099983
    95   1    0.010455564652611753      16.867170987905936      52.603901440488514
    96   1      1.5163504002782724      19.308908186963759      52.532529759648305
    97   1   -0.018619335437024143      15.054208883391111      54.955331385804278
    98   1      1.3962101137686087      17.520277786211274      54.878623422318363
    99   1      1.4308499663026024      15.888840000758625      57.193928931456881
   100   1   -0.042570528003910452      18.497511409721177      57.300401493369058
   101   1    0.089289714746856194        16.8120564460257       59.64241293701879
   102   1      1.4507128485012823      19.305516740837128      59.585033406206314
   103   1   -0.025834130028905136      15.158852051691637        61.9199422326583
   104   1      1.4579209187546327      17.603451603205318      61.906312580110317
   105   1   -0.069471406343590711      20.138510677158912       33.89686397047425
   106   1      1.3622120541131115       22.66728517483314      33.924958611810794
   107   1      1.4359191258807202      20.967967474141638       36.27349070249187
   108   1    0.048607182391854242      23.360232562080821      36.156193355722486
   109   1   -0.014774095105551166      21.841481742365083      38.526965256927326
   110   1      1.4099804911938385      24.348501732204735       38.42525098329665
   111   1    0.035653505016270591      20.182799052328537      40.882190838049802
   112   1      1.5482933195467359      22.650519320976755       40.83692301769053
   113   1       1.362540731124277      21.038408420829604       43.13824480467629
   114   1   -0.056700051060020851      23.466207431346657      43.144940059826425
   115   1    0.017741547607019802      21.808193052930427      45.551754137312905
   116   1      1.4548251641430727      24.336322395218133      45.523385139288536
   117   1    0.059222464774767586      20.148778612294077      47.962830519130733
   118   1      1.5061105525149017      22.629342676956256      47.935825190364362
   119   1       1.317621555345676      20.921917750013943      50.220909661022795
   120   1   -0.053878472134209023      23.555061043564073      50.224252158251517
   121   1   -0.040872088432992393      21.846773199937662      52.489694656126339
   122   1      1.4198046344066624      24.300395990298068      52.675630840042572
   123   1   -0.029790588744502213      20.077177843052564      54.836993905143096
   124   1      1.4156254080033839      22.671583836017309      54.798677157458386
   125   1       1.410818085857291      20.926756845528104      57.274416034279668
   126   1   -0.027090152983152246      23.483738046079754      57.245674349202041
   127   1    -0.13460152280503609      21.761334476480126        59.4935949935522
   128   1      1.4527576673728548      24.345650470300978      59.536744022847529
   129   1   -0.085706249095871531      20.256665588505264      61.996015872592849
   130   1      1.4126443118500929      22.626910138236116      61.935874419850215
   131   1    0.030222064869730933       25.21700134871919      33.787668698783058
   132   1       1.420190673053886       27.61320056314857      33.953899925748857
   133   1      1.4844539606587008      26.013201500166645      36.196366192991597
   134   1   -0.028354313131193794      28.535320512088568      36.215518520763808
   135   1    -0.15095128179909864      26.846947386395829      38.604687694361353
   136   1      1.4170149792769471      29.259113828607735      38.554815704235224
   137   1  -0.0099957569955789177      25.134562276389211      40.847164745955169
   138   1      1.4613442907918419      27.637571801642217      40.872015336621445
   139   1      1.3807131737195588      26.012348643517608      43.297666654601741
   140   1   0.0034346345737137013      28.552580913606935      43.168875939709935
   141   1   -0.042101657526630698      26.838434117263148      45.561147340004112
   142   1      1.3783763165770138       29.33631617143606      45.562809448094576
   143   1    0.019129420494777581      25.171292662697216       47.86286651631719
   144   1      1.3890772494781054      27.725582055694762      47.885281794701235
   145   1      1.3578650008692463      26.062945236538493      50.256461288651025
   146   1   -0.026381703303576937      28.551735567950146      50.215906580123381
   147   1   -0.052959021926488263      26.882906565352815      52.491913580324557
   148   1      1.4869679821064625      29.380173359862223       52.61552118769017
   149   1    -0.11067688519771941      25.168965091801006      54.820864003105214
   150   1      1.4671552739122562      27.565425042124559      54.860706992527589
   151   1      1.4902062760287909      25.941915360249478      57.185679938978147
   152   1    0.066269409820558137      28.583018752374137      57.334055985718258
   153   1    0.071879032295243936      26.934467601913617      59.520365365226588
   154   1       1.437842524072517      29.296490097185668      59.629930173732319
   155   1   0.0065143357085163042      25.038455409586856      61.881504151059659
   156   1      1.4058830551589643      27.607771188974205       61.94283681750364
   157   1       2.791364761914767    0.046424673833310753      33.922259117160706
   158   1      4.4189812691010424      2.5327755751447336       33.83953551817725
   159   1      4.3996558952008753     0.79975737756506204      36.192726177499132
   160   1      2.7956332723903219      3.2913816210534241       36.22326674893381
   161   1      2.9261829921525093      1.6637562796468199      38.476655244267263
   162   1      4.2580553438409021      4.2590882360082416      38.574867186887737
   163   1      2.7963490026569167    0.079974473117339004       40.94880185460282
   164   1      4.4367707442296931      2.5601660753674782      40.919497590743035
   165   1      4.2510350913246082     0.79473806917083389      43.233318297956529
   166   1      2.8685025305707219      3.3577181787277999      43.154287077088156
   167   1      2.8670441795274333      1.7272844508857934      45.527789508678637
   168   1      4.3193298941895506      4.0549002086846926      45.528045413924687
   169   1       2.890116874480368    0.065086003756624128      47.831082529018758
   170   1      4.3057782868859702      2.4915302258763363      47.865857875501085
   171   1      4.3210097720030163     0.79783434479693305      50.225970573673436
   172   1      2.8248848002008748      3.2743636047185287      50.219796318503896
   173   1       2.921604912207131      1.5880356934166999       52.44910876683592
   174   1      4.3675042964912674      4.1665277765384507      52.583533062409543
   175   1      2.9039070369866775    0.015078732205015568      54.830170490692801
   176   1      4.2661025101772028      2.4428641751137508      54.967186970666262
   177   1      4.3094330914239709     0.91352074061070454      57.379288275594703
   178   1      2.8362326175805816      3.3830162310526797      57.298417635332179
   179   1       2.832091692552722      1.6879332611245448      59.526681151572113
   180   1      4.2521258787303422      4.1483386421262658      59.574786872611817
   181   1      2.9191957320114179    0.021362880885888356      61.986333383670477
   182   1      4.2493884822594321      2.4293026694684965       61.96076743527955
   183   1      2.8802502444458544      5.0982344882383197      33.787247424381107
   184   1      4.3608755028761408      7.5383391276779239       33.88195007015274
   185   1      4.3197781091860152       5.861619427227212       36.22243222650529
   186   1      2.8570125685204446      8.4036531082554085      36.146483556895774
   187   1      2.8615834822764774       6.744619431326786      38.470909393074457
   188   1      4.3620635322026482      9.2347309072667834      38.460139965729979
   189   1      2.9271881125946964      4.9554120937401462      40.899149822445651
   190   1      4.3307373598000769       7.451670870740446      40.833513165942939
   191   1      4.3213020056334654      5.8944420495443826      43.253553873959788
   192   1      2.8854276138280159      8.3487728490071991      43.294340162098202
   193   1      2.8386320392155526      6.6406976131071866      45.539314482418035
   194   1      4.2570182825790557      9.2376494136855403      45.562408317079736
   195   1      2.8168824983578595       5.003196034908524      47.849291033292367
   196   1      4.3476247578472913      7.5766338488724747      47.912740246528173
   197   1       4.439841138338064      5.8066119651625074      50.156201311744077
   198   1      2.8515098095004725      8.3524703028998832      50.160907807210194
   199   1      2.8295651910124557      6.7028883217085893      52.614081988663678
   200   1      4.2699692068541175      9.2010454476491095      52.543702446666728
   201   1      2.9489110297304721      5.0606170609480783      54.946660222548708
   202   1      4.3069436027956725      7.6120082597409171      54.916451899409736
   203   1      4.3267576058951587      5.9181530675875971      57.307090043500374
   204   1      2.8784701681069662      8.3681041705864061      57.206849439108836
   205   1      2.8023188112609203      6.7357341750029889      59.549340440745276
   206   1      4.3710522420378011       9.250330288676702      59.483177045713504
   207   1      2.8163138928914671      5.0529024720326019       61.95319933778952
   208   1      4.3054629001517881      7.5179813216329556      61.928631382132487
   209   1      2.8685738049324629      10.115052735682845      33.792668524321506
   210   1      4.2958455248420391      12.573071786495449      33.916408334403449
   211   1      4.3138395322483021      10.923763865788759      36.234988510325174
   212   1      2.9333309670304168      13.381051715547127      36.137893097153459
   213   1      2.8972594214893239      11.702586384077845      38.572902717346686
   214   1      4.3259281671318348      14.193263237448789      38.547286845045114
   215   1      2.8753245286067246       10.09074463976779      40.820791971741727
   216   1      4.3068854229106392      12.591771281322892      40.860094522021562
   217   1      4.3406097991646728      10.849919301066906      43.244959277642934
   218   1      2.7920707698753247      13.483106118465786       43.23854611248305
   219   1      2.8450766264906133      11.723608647407977      45.490789030641949
   220   1      4.2840755866200508      14.258504556356094      45.603509579047987
   221   1      2.8280550406485134      9.9906099651058344      47.891840521059422
   222   1      4.2848089472242687      12.544031922501054       47.89457002320168
   223   1      4.3258460558069256      10.912830717144629      50.323132412832727
   224   1      2.8022548604576154      13.421800405663161      50.166604989434283
   225   1      2.7954199265764288      11.731981140834312      52.515445337848817
   226   1      4.4006099848230784      14.253983485709798      52.539358045390721
   227   1      2.9522105325932122      10.015116058958501      54.853705415394543
   228   1      4.3339228725456067      12.543449411679992      54.897950185970622
   229   1      4.2512691623084082       10.84170854353278      57.152082104598087
   230   1      2.8269204380754593      13.391249179653002      57.271272990420925
   231   1      2.9165934715544783      11.819626866371122      59.599198803133994
   232   1      4.3365833844331352      14.324387648315088      59.602577884514062
   233   1      2.9239179299112146      10.122961628737519      61.949439157428372
   234   1      4.3351481480680452      12.635266730153148      61.876497378001218
   235   1      2.8400211336339125      15.150785694542018      33.800005766488127
   236   1      4.2827183402826074      17.609780234331552      33.856474169857819
   237   1      4.3284530417800395      16.007472264468209      36.170705162259885
   238   1      2.7657586202836275      18.512859088355274      36.246035851698316
   239   1      2.9812580456904159      16.731654666322047      38.508607124807192
   240   1      4.3899352932029139      19.262644254658955       38.47496905463013
   241   1      2.8454842685730575      15.088764422876126      40.959181423950348
   242   1      4.2080634817364224      17.681669060918516      40.817726540145877
   243   1      4.3168286297080112      15.992989651405459      43.291072637987753
   244   1      2.8457732714892536      18.425227719500338      43.268799144282788
   245   1       2.871518939707876      16.739503270757048      45.549448821939372
   246   1      4.3511102153193466      19.340190436558448      45.576817571835022
   247   1      2.9724793085068311      15.109631062957742      47.877331569247758
   248   1      4.3581572395904553      17.538703656570618      47.969797764574558
   249   1      4.3602936122464175      15.995413635543715      50.205201808856806
   250   1      2.8964662161815431      18.463814408372926      50.262675138550406
   251   1      2.8925625054863904      16.744316916908101      52.641061221517603
   252   1      4.2456025483330206      19.325936320582628      52.588181241749922
   253   1      2.8727123673895658       15.05022145042731      54.951942227890527
   254   1      4.2864098331629625      17.612549991763263      54.886783899056148
   255   1      4.3128939452154444      15.880164529450361      57.228460136074936
   256   1      2.9960282013680453      18.418871611005489      57.207108994855552
   257   1      2.9060296083866195       16.76516220111251      59.599690106515602
   258   1      4.2585884918510537      19.317031965627876      59.503738108751428
   259   1      2.9138412431506175      15.037367710835358      61.976184890002543
   260   1      4.3273948839661811      17.637095738313036      61.873509988338931
   261   1      2.9081252211001209      20.082220457136909       33.86519397069933
   262   1       4.427253746013692      22.657267456803641      33.831901882035865
   263   1      4.3415062694371542      21.004585544612318       36.15702364604833
   264   1      2.9146489493189134      23.566242366809327      36.181435563441411
   265   1      2.9154820852597805      21.860628889505531      38.511262855218625
   266   1      4.3340442769222776       24.22276965987146      38.553780701505595
   267   1      2.7974085475047796      20.108801875033723      40.901610486197875
   268   1       4.327910563805867      22.619697844974528      40.922597814017649
   269   1      4.2532149815639908      21.006256975734726      43.219456116744844
   270   1      2.8694270603151106      23.423700745164044      43.171127359280192
   271   1      2.8411360017938709       21.77885374422349       45.54567053290878
   272   1      4.2939918113008586      24.331682072272038      45.570899886023234
   273   1      2.8005719539417053      20.163832686772253      47.838104640364648
   274   1      4.2514271426282386      22.554305778678319      47.866516485186359
   275   1      4.4558864845532629       21.08020923533244       50.12177742757563
   276   1      2.9416943154710977      23.518893268428105      50.237334585278042
   277   1      2.8310978211391284      21.842134565809108      52.420058826362812
   278   1      4.2966729650056381      24.333288764056014      52.577846886015038
   279   1      2.8303363530977981      20.167495594512065       54.80927492032172
   280   1      4.3197155177565092       22.61197973895327      54.903808260749678
   281   1      4.3506632661007014      20.917738007178347      57.224972353693367
   282   1      2.8213263067947731      23.546098823147613      57.315207458847475
   283   1      2.8987592532336133      21.816379239353857      59.603925697375615
   284   1      4.3252262855675321      24.366461636358249      59.592524854370076
   285   1      2.8217418615375434      20.146593256708019      61.876653711175983
   286   1      4.3233368304426714      22.575196054298964      61.950519623717135
   287   1      2.8860105746879654      25.198878726246708      33.853065123351016
   288   1      4.3731724465257615      27.700714062384211      33.761192842610889
   289   1      4.3280526554208887       26.06612915432704      36.149803045373012
   290   1      2.8996705863995427      28.535392095328227      36.153331265024775
   291   1      2.7910221998363514      26.867445250280323      38.523234852143922
   292   1       4.228617342043953      29.398843076270257      38.510001728218057
   293   1      2.9288815889548419      25.197143737014471      40.836532211926624
   294   1      4.3396102645281402       27.60751891037587      40.918602617095353
   295   1      4.3130961519474358      25.991257170905634      43.251939991626116
   296   1      2.8905260482878163      28.544788494536284      43.250344948349813
   297   1       2.801813953867947       26.83974061072891      45.607168570668506
   298   1      4.3467990600239013      29.392851330674347      45.554221478329879
   299   1       2.833160136093178      25.179422526291603      47.900641496476482
   300   1       4.252056263524131      27.649586305178186      47.862068344467886
   301   1       4.365026923474705      25.992902534335038      50.171969973408331
   302   1        2.91132836413033      28.416403851068146      50.197872666734987
   303   1      2.8463116887758595      26.926353997735092      52.581971821587658
   304   1      4.3025023742102588      29.434400587991441      52.471132119704848
   305   1      2.9033395397845418      25.133403561433642      54.873458922015224
   306   1      4.3638702645063852      27.659736584878726      54.967685847189472
   307   1      4.3219793149712427      26.053461956622701      57.274896612364955
   308   1      2.8185490784697547      28.483413677479945       57.30023673878533
   309   1      2.8692681031887739      26.799757052989918      59.622245383586431
   310   1       4.236577742863445      29.374873223961966       59.51923206335703
   311   1       2.905919958379839       25.13251397694555      61.915993136947407
   312   1      4.2851559558535754       27.67936968861413      61.873395828042177
   313   1      5.7654912561292404    0.093804005199125504      33.851293098750823
   314   1      7.2756853397111305      2.5179229176457669      33.875726581758109
   315   1      7.1943497241351126     0.83771743239786556      36.143715107202617
   316   1      5.7763092792427004      3.3787569165165818      36.223028863442899
   317   1      5.7355342178555446       1.650017177748583      38.594013522079869
   318   1      7.1674410082629061       4.162054839699115      38.579701320173307
   319   1      5.7030109992944222    0.049082853649246631      40.876193852496961
   320   1       7.149739647128504      2.6036366149923875      40.838289205130785
   321   1      7.1181803839344457     0.75495646455987508      43.278980941537661
   322   1      5.7531737256171036      3.3530576045623182      43.160559171534864
   323   1      5.6374041893732061      1.6788669212467315      45.549760613837655
   324   1      7.2519428940303685      4.2553079978003234      45.583281493146572
   325   1      5.7250270500151332     0.11199819542058077      47.945257769282861
   326   1      7.2315755671877744      2.5342742888076724      47.892201609057466
   327   1      7.1870324851859113     0.80491217305343399      50.267981666921663
   328   1      5.7090021555548685      3.3456187045589632      50.188419864254371
   329   1      5.7766337713305651      1.6079272910645692      52.486952281940994
   330   1      7.1844877590144076      4.1872310435081896      52.668524123795805
   331   1      5.7640992368469153    0.066606649069979706      54.957723216596136
   332   1      7.1926852802893491      2.5263353228391852      54.841953507313633
   333   1      7.1177704797368033     0.75817803965519659      57.247910824554481
   334   1      5.8185241409046444      3.3785111747996592      57.166385154462084
   335   1      5.7842192776397887      1.6165390235035386      59.507310422608796
   336   1      7.2336113755467704      4.1664572142916416      59.524042271089904
   337   1      5.8100865749131128   -0.020637210596960786      61.878002527077925
   338   1      7.1288012477373446      2.5071227531220122      61.965573000721093
   339   1      5.7133954445398478      5.0487081104880556      33.843984144276995
   340   1      7.2372755329123786      7.5837131950778884      33.805535080587148
   341   1      7.3212503370871218      5.8917474669453203      36.245416957932939
   342   1      5.6680734931854992      8.4081416266603526       36.13894777881702
   343   1      5.7449696547188891      6.6860622770964424      38.538843138775356
   344   1      7.2065909954492176      9.2090872673903821      38.535000360394186
   345   1      5.7581324358000261      5.0338824192164875      40.837616020538611
   346   1      7.1498711722659616      7.5936587773502957       40.85897177780798
   347   1      7.2584384243978395      5.8424909704964252      43.209992466170561
   348   1      5.7216462988055916      8.4833271806344186      43.287660217180225
   349   1      5.7773441147299964       6.667842111835955      45.559026211638681
   350   1      7.2941203008083031      9.2234967664261998      45.604030851284655
   351   1      5.7370483260251159      5.0323250304919176      47.868329959015881
   352   1      7.1991285837002641      7.4517513491733176      47.871562773787701
   353   1      7.2073568764962523      5.9510040756264102      50.242522121156135
   354   1      5.8016054268592638        8.37056862548555      50.199841598766938
   355   1      5.7365823537491476      6.7045383589837897      52.601250684878273
   356   1      7.1766139586332587      9.2189790378332024      52.507810411084833
   357   1      5.8142111648860393      5.1695835754072519      54.828174353067382
   358   1      7.2369548142199775      7.5482463546226617      54.967034878223856
   359   1      7.1779425149077651      5.8973970315619999      57.197277396064891