LAMMPS (10 Dec 2025)
OMP_NUM_THREADS environment is not set. Defaulting to 1 thread.
  using 1 OpenMP thread(s) per MPI task
units metal
boundary p p s
atom_style atomic
timestep 0.002
read_data data.interface
Reading data file ...
  orthogonal box = (0 0 0) to (31.066736 31.225455 64.029283)
  1 by 1 by 4 MPI processor grid
  reading atoms ...
  4335 atoms
  read_data CPU = 0.032 seconds

pair_style eam/alloy
pair_coeff * * /mnt/c/Users/iwash/Documents/Repositories/Lammps/potentials/AlCu.eam.alloy Al Cu
Reading eam/alloy potential file /mnt/c/Users/iwash/Documents/Repositories/Lammps/potentials/AlCu.eam.alloy with DATE: 2008-10-01

neighbor 2.0 bin
neigh_modify delay 10 check yes

thermo 100
thermo_style custom step temp pe press pxx pyy lx ly lz

print '=== Phase 0: Shake (High-T limit) ==='
=== Phase 0: Shake (High-T limit) ===
velocity all create 1000.0 34586 dist gaussian
fix shake all nve/limit 0.1
run 1000
Neighbor list info ...
  update: every = 1 steps, delay = 10 steps, check = yes
  max neighbors/atom: 2000, page size: 100000
  master list distance cutoff = 8.6825
  ghost atom cutoff = 8.6825
  binsize = 4.34125, bins = 8 8 14
  1 neighbor lists, perpetual/occasional/extra = 1 0 0
  (1) pair eam/alloy, perpetual
      attributes: half, newton on
      pair build: half/bin/atomonly/newton
      stencil: half/bin/3d
      bin: standard
Per MPI rank memory allocation (min/avg/max) = 3.495 | 3.72 | 3.952 Mbytes
   Step          Temp          PotEng         Press           Pxx            Pyy             Lx             Ly             Lz      
         0   1000          -14704.343      9674.3189      7216.7606      8181.6958      31.066736      31.225455      60.311513    
       100   607.11141     -14484.577      20239.966      18578.236      18694.132      31.066736      31.225455      61.828849    
       200   574.36783     -14466.071      11892.352      11178.139      11701.768      31.066736      31.225455      62.375192    
       300   596.64195     -14478.226      2738.2141      3526.5171      3763.2515      31.066736      31.225455      63.564843    
       400   562.88322     -14459.064     -1094.4897      1617.4796      48.528752      31.066736      31.225455      63.424495    
       500   548.28219     -14450.674     -12898.346     -8357.9461     -9115.3903      31.066736      31.225455      64.930733    
       600   528.1652      -14439.393     -18612.403     -13170.179     -12828.977      31.066736      31.225455      65.126885    
       700   530.19442     -14440.528     -15102.412     -9988.5928     -10709.577      31.066736      31.225455      64.822321    
       800   558.71369     -14456.564     -6849.6957     -4036.7042     -4439.0958      31.066736      31.225455      64.198072    
       900   572.45637     -14464.447      804.77304      2254.9288      1023.1466      31.066736      31.225455      63.5603      
      1000   581.21539     -14469.598      4590.2229      5535.4414      3568.5953      31.066736      31.225455      63.350269    
Loop time of 2.69229 on 4 procs for 1000 steps with 4335 atoms

Performance: 64.183 ns/day, 0.374 hours/ns, 371.431 timesteps/s, 1.610 Matom-step/s
103.6% CPU use with 4 MPI tasks x 1 OpenMP threads

MPI task timing breakdown:
Section |  min time  |  avg time  |  max time  |%varavg| %total
---------------------------------------------------------------
Pair    | 1.7589    
Nlocal:        1083.75 ave        1343 max         887 min
Histogram: 2 0 0 0 0 0 1 0 0 1
Nghost:           3633 ave        4451 max        2477 min
Histogram: 1 0 0 0 0 1 0 0 1 1
Neighs:        99267.2 ave      143976 max       57504 min
Histogram: 1 1 0 0 0 0 0 1 0 1

Total # of neighbors = 397069
Ave neighs/atom = 91.596078
Neighbor list builds = 28
Dangerous builds = 0
=== Phase 1: 0K Relaxation ===
Switching to 'neigh_modify every 1 delay 0 check yes' setting during minimization
Setting up cg style minimization ...
  Unit style    : metal
  Current step  : 1000
WARNING: Energy due to 3 extra global DOFs will be included in minimizer energies
 (src/min.cpp:222)
Per MPI rank memory allocation (min/avg/max) = 4.62 | 4.857 unfix shake
velocity all set 0 0 0

# x,y方向の箱寸法 + 原子位置を同時最適化（z方向はshrink-wrap）
print '=== Phase 1: 0K Relaxation ==='
=== Phase 1: 0K Relaxation ===
fix relax all box/relax x 0.0 y 0.0 vmax 0.001
minimize 1.0e-8 1.0e-10 10000 100000
Switching to 'neigh_modify every 1 delay 0 check yes' setting during minimization
WARNING: Energy due to 3 extra global DOFs will be included in minimizer energies
 (src/min.cpp:222)
Per MPI rank memory allocation (min/avg/max) = 4.62 | 4.857 | 5.097 Mbytes
   Step          Temp          PotEng         Press           Pxx            Pyy             Lx             Ly             Lz      
      1000   0             -14469.598     -1070.934       213.24133     -2174.5485      31.066736      31.225455      63.235932    
      1100   0             -14554.017     -1773.0004     -915.19627     -178.81073      30.995091      31.049793      63.235932    
      1200 Loop time of 1.90031 on 4 procs for 489 steps with 4335 atoms

103.9% CPU use with 4 MPI tasks x 1 OpenMP threads

Minimization stats:
  Stopping criterion = linesearch alpha is zero
  Energy initial, next-to-last, final = 
      -14469.597985968  -14697.1618628255  -14697.1618628255
  Force two-norm initial, final = 101.70597 26.86889
  Force max component initial, final = 83.40875 16.45139
  Final line search alpha, max atom move = 1.4492306e-11 2.3841858e-10
  Iterations, force evaluations = 489 591

MPI task timing breakdown:
Section |  min time  |  avg time  |  max time  |%varavg| %total
---------------------------------------------------------------
Pair    | 1.8231     | 1.8233     | 1.8236     |   0.0 | 95.95
Neigh   | 0          | 0          | 0          |   0.0 |  0.00
Comm    | 0.023178   | 0.023513   | 0.024272   |   0.3 |  1.24
Output  | 9.2242e-05 | 0.00011689 | 0.0001901  |   0.0 |  0.01
Modify  | 0          | 0          | 0          |   0.0 |  0.00
Other   |            | 0.05339    |            |       |  2.81

Nlocal:        1083.75 ave        1344 max         896 min
Histogram: 2 0 0 0 0 0 1 0 0 1
Nghost:        3634.75 ave        4466 max        2492 min
Histogram: 1 0 0 0 1 0 0 0 1 1
Neighs:        99349.2 ave      144024 max       58215 min
Histogram: 1 1 0 0 0 0 0 1 0 1

Total # of neighbors = 397397
Ave neighs/atom = 91.671742
Neighbor list builds = 0
Dangerous builds = 0
=== Phase 2: Annealing at 600.0K for 10.0ps ===
Setting up Verlet run ...
  Unit style    : metal
  Current step  : 0
  Time step     : 0.002
Per MPI rank memory allocation (min/avg/max) = 3.495 | 3.732 | 3.972 Mbytes
   Step          Temp          PotEng         Press           Pxx            Pyy             Lx             Ly             Lz      
         0   600           -14697.162      3139.8337      6138.3107      6467.7258      30.774235      30.857258      63.04257     
       100   435.79217     -14546.4unfix relax

# 界面近傍の原子配置を緩和（ミスフィット軽減）
print '=== Phase 2: Annealing at 600.0K for 10.0ps ==='
=== Phase 2: Annealing at 600.0K for 10.0ps ===
reset_timestep 0
velocity all create 600.0 34586 dist gaussian
fix ann all npt temp 600.0 600.0 0.1 x 0.0 0.0 1.0 y 0.0 0.0 1.0
run 5000
Per MPI rank memory allocation (min/avg/max) = 3.495 | 3.732 | 3.972 Mbytes
   Step          Temp          PotEng         Press           Pxx            Pyy             Lx             Ly             Lz      
         0   600           -14697.162      3139.8337      6138.3107      6467.7258      30.774235      30.857258      63.04257     
       100   435.79217     -14546.444     -3714.4657     -4754.9256     -3703.6312      31.123929      31.248134      62.841762    
       200   507.01657     -14496.966      2038.8142      802.38152      742.95813      31.101425      31.321484      62.710838    
       300   587.92405     -14457.405      1372.0839      842.46285     -156.35664      31.127107      31.352602      63.100141    
       400   618.85532     -14429.785     -1286.6389     -2862.5607     -1912.454       31.230431      31.338804      63.807055    
       500   588.71989     -14422.991      2751.6622      2580.8177      2334.474       31.185506      31.263337      63.521454    
       600   588.2424      -14448.144     -431.38193     -636.62402     -401.78641      31.184272      31.281336      63.518231    
       700   587.45949     -14439.126     -1353.5327     -387.40374     -657.74622      31.117754      31.298617      63.489158    
       800   604.90374     -14422.11       138.54491      1441.5389      1222.2108      31.043067      31.27859       64.111361    
       900   606.20788     -14427.661     -1989.6512      277.45699     -1270.7643      31.038082      31.337909      64.238315    
      1000   591.85134     -14442.524     -989.77764     -180.26628     -280.33525      31.0826        31.297752      63.736089    
      1100   598.98106     -14438.413      156.67261     -72.606677      1773.085       31.103657      31.260041      64.131042    
      1200   604.73988     -14426.863     -1141.6626      845.30724     -3014.1797      31.064195      31.376727      63.730028    
      1300   606.4026      -14436.235      904.44221     -90.39486       1700.7901      31.073753      31.293114      63.818386    
      1400   587.28243     -14440.437      621.99518      61.979503     -558.15221      31.046763      31.392993      63.819655    
      1500   599.61665     -14437.894      1613.1305      1185.8625     -211.114        31.041496      31.394615      63.360978    
      1600   606.74415     -14431.353     -10.103638     -915.35889     -537.91249      31.12045       31.35837       64.019994    
      1700   597.55313     -14437.374     -420.65339      69.201989     -1900.537       31.0694        31.377978      63.757877    
      1800   590.68667     -14439.542      2202.501       2170.0024      1928.4705      31.065339      31.3162        63.830836    
      1900   604.48182     -14435.246      114.97291     -0.83447543    -786.64911      31.108108      31.365198      64.211252    
      2000   601.11417     -14434.764     -216.28838      298.75339     -214.13126      31.066331      31.347017      63.951527    
      2100   604.97994     -14440.801     -350.27861      185.26824      1393.883       31.056      2700   598.38286     -14440.868      1800.2084      833.42086      2475.1453      31.166419      31.211541      64.180736    
      2800   590.78791     -14441.077     -1460.3345      593.18324     -3535.5969      31.110027      31.378067      63.600139    
      2900   610.99403     -14441.067     -735.18322     -1718.8307      652.66652      31.232717      31.240834      63.446335    
      3000   600.83561     -14438.501      1591.2716      1559.8394      2257.3122      31.187653      31.235923      63.504727    
      3100   598.6062      -14445.813     -2312.6802     -2209.8422     -3381.6123      31.20447       31.347558      63.711867    
      3200   604.27004     -14440.988       2700   598.38286     -14440.868      1800.2084      833.42086      2475.1453      31.166419      31.211541      64.180736    
      2800   590.78791     -14441.077     -1460.3345      593.18324     -3535.5969      31.110027      31.378067      63.600139    
      2900   610.99403     -14441.067     -735.18322     -1718.8307      652.66652      31.232717      31.240834      63.446335    
      3000   600.83561     -14438.501      1591.2716      1559.8394      2257.3122      31.187653      31.235923      63.504727    
      3100   598.6062      -14445.813     -2312.6802     -2209.8422     -3381.6123      31.20447       31.347558      63.711867    
      3200   604.27004     -14440.988      1613.365       591.26245      1836.6026      31.192962      31.295985      63.287511    
      3300   605.06551     -14432.621      846.45808      477.53748      263.89186      31.164948      31.35635       63.272494    
      3400   592.2481      -14434.779     -1504.4837     -1461.2319     -2057.8149      31.211846      31.340891      63.475282    
      3500   603.37646     -14442.201      1822.7613      1132.9449      2233.8911      31.183105      31.262207      63.686293    
      3600   609.11924     -14443.328     -769.22129      376.89468     -1606.5987      31.148735      31.353327      63.96396     
      3700   586.75334     -14433.936     -493.08552     -1367.5684     -121.96742      31.20571       31.33756       63.564104    
      3800   610.17846     -14440.539      2070.8017      3194.0566      2553.4668      31.103492      31.288604      63.593284    
      3900   621.1646      -14433.104     -1743.2912     -1447.1654     -2487.3368      31.162754      31.370259      63.308048    
      4000   590.90727     -14435.56       623.79226      316.48012      1292.828       31.15741       31.284347      63.600502    
      4100   585.85887     -14435.184      695.11447      1374.8913      789.03079      31.135699      31.309555      63.697465    
      4200   614.71405     -14438.784     -1424.3135     -1116.8054     -917.58472      31.173641      31.344157      63.994495    
      4300   590.4697      -14437.356      579.73359      1492.8111      1365.123       31.147212      31.27609       63.591838    
      4400   598.02926     -14442.37      -902.03859     -778.05681     -1121.9575      31.167      5000   601.89899     -14444.56       649.37152      231.69586      1232.2541      31.113357      31.301084      63.739886    
Loop time of 13.3027 on 4 procs for 5000 steps with 4335 atoms

Performance: 64.949 ns/day, 0.370 hours/ns, 375.862 timesteps/s, 1.629 Matom-step/s
103.8% CPU use with 4 MPI tasks x 1 OpenMP threads

MPI task timing breakdown:
Section |  min time  |  avg time  |  max time  |%varavg| %total
---------------------------------------------------------------
Pair    | 8.6764     | 10.525     | 12.336     |  49.2 | 79.12
Neigh   | 0.14542    | 0.26358    | 0.37578    |  16.9 |  1.98
Comm    | 0.35857    | 2.1066     | 3.6273     | 102.4 | 15.84
Output  | 0.0010968  | 0.0014336  | 0.0024154  |   1.5 |  0.01
Modify  | 0.17769    | 0.36911    | 0.9086     |  51.3 |  2.77
Other   |            | 0.03744    |            |       |  0.28

Nlocal:        1083.75 ave        1344 max         849 min
Histogram: 1 0 1 0 0 0 1 0 0 1
Nghost:           3628 ave        4511 max        2347 min
Histogram: 1 0 0 0 0 1 0 0 1 1
Neighs:        98646.5 ave      143462 max       54085 min
Histogram: 1 0 1 0 0 0 0 1 0 1

Total # of neighbors = 394586
Ave neighs/atom = 91.023299
Neighbor list builds = 158
Dangerous builds = 0
=== Phase 2b: Cooling 600.0K -> 300.0K ===
Setting up Verlet run ...
  Unit style    : metal
  Current step  : 5000
  Time step     : 0.002
Per MPI rank memory allocation (min/avg/max) = 3.495 | 3.732 | 3.972 Mbytes
   Step          Temp          PotEng         Press           Pxx            Pyy             Lx             Ly             Lz      
      5000   601.89899     -14444.56       652.52345      232.82047      1238.2352      31.113357      31.301084      63.431999    
      5100   594.4382      -14431.839      464.48033      23.580989     -125.08852      31.130585      31.338853      63.431725    
      5200   601.91029     -14438.265     -199.90982     -24.274879     -1047.4544    unfix ann

print '=== Phase 2b: Cooling 600.0K -> 300.0K ==='
=== Phase 2b: Cooling 600.0K -> 300.0K ===
fix cool all npt temp 600.0 300.0 0.1 x 0.0 0.0 1.0 y 0.0 0.0 1.0
run 5000
Per MPI rank memory allocation (min/avg/max) = 3.495 | 3.732 | 3.972 Mbytes
   Step          Temp          PotEng         Press           Pxx            Pyy             Lx             Ly             Lz      
      5000   601.89899     -14444.56       652.52345      232.82047      1238.2352      31.113357      31.301084      63.431999    
      5100   594.4382      -14431.839      464.48033      23.580989     -125.08852      31.130585      31.338853      63.431725    
      5200   601.91029     -14438.265     -199.90982     -24.274879     -1047.4544      31.110712      31.321692      63.762854    
      5300   580.70793     -14442.482      42.279079     -622.0732       1210.9581      31.103806      31.265963      64.016505    
      5400   572.81954     -14452.452     -1233.2915      846.13277     -1004.9328      31.030433      31.321984      63.749044    
      5500   567.47829     -14454.586     -652.27022      529.24606      831.08587      31.050542      31.295721      63.527565    
      5600   559.49954     -14464.505     -1085.9791     -1675.4069      661.95163      31.111205      31.239935      63.667506    
      5700   566.15374     -14470.277     -494.88676      947.87925     -1355.6415      31.049764      31.317628      63.427658    
      5800   556.97386     -14472.853      147.91386     -672.54052      287.83245      31.124457      31.276528      63.274723    
      5900   541.94822     -14474.665      579.34189     -384.25676      1044.0688      31.15731       31.247529      63.367404    
      6000   526.29207     -14479.923      1413.4051      2235.4324      454.91515      31.075656      31.324954      63.007714    
      6100   535.73268     -14490.455     -223.25102     -930.61253      220.51242      31.124582      31.294028      62.949507    
      6200   522.55474     -14488.006     -660.46141     -819.93703     -814.92598      31.180741      31.291122      62.831707    
      6300   518.93924     -14497.319      2084.872       2491.6777      778.96991      31.11391       31.290513      62.838514    
      6400   530.45003     -14502.58       86.898707     -1306.1085     -570.95156      31.194658      31.273362      63.207528    
      6500   502.93097     -14496.427     -336.84349     -1371.3972     -1703.8081      31.205044      31.280065      62.69303     
      6600   508.88392     -14510.63       1469.553       1654.4241      900.60621      31.117839      31.233144      63.098672    
      6700   503.04599     -14512.201     -1084.8578     -1370.3836     -205.26049      31.136515      31.242064      62.953156    
      6800   486.18783     -14517.313     -2169.2989     -455.22305     -1672.4413      31.081602      31.272503      62.671928    
      6900   491.0197      -14516.509      246.36262      1013.6501      1835.1247      31.098045      31.196588      62.846212    
      7000   484.87528     -14524.323     -1500.256      -857.2451      -571.47789      31.138998      31.211446      63.020203    
      7100   471.7184      -14524.344     -743.48439      313.33045     -1068.1759      31.051459      31.276965      62.727143    
      7200   469.85341     -14531.335      1346.0315        7800   433.2013      -14554.51       415.27659     -1164.9439      227.21483      31.140003      31.247052      62.287358    
      7900   426.08516     -14562.42       1212.8959      1364.9478      611.38324      31.066091      31.233247      62.290235    
      8000   418.26515     -14560.214     -103.78936     -431.93978      550.53171      31.102125      31.207096      62.250362    
      8100   410.6097      -14566.765     -1619.3632     -1425.1976     -1325.8215      31.097847      31.212257      62.26273     
      8200   410.19917     -14568.95       956.18695      1936.2428      878.44212      31.038465      31.177253      62.424051    
      8300   401.71869     -14574.844     -1029.6308     -1471.1797     -213.02242      31 433.2013      -14554.51       415.27659     -1164.9439      227.21483      31.140003      31.247052      62.287358    
      7900   426.08516     -14562.42       1212.8959      1364.9478      611.38324      31.066091      31.233247      62.290235    
      8000   418.26515     -14560.214     -103.78936     -431.93978      550.53171      31.102125      31.207096      62.250362    
      8100   410.6097      -14566.765     -1619.3632     -1425.1976     -1325.8215      31.097847      31.212257      62.26273     
      8200   410.19917     -14568.95       956.18695      1936.2428      878.44212      31.038465      31.177253      62.424051    
      8300   401.71869     -14574.844     -1029.6308     -1471.1797     -213.02242      31.09867       31.168775      62.383383    
      8400   398.54528     -14577.042     -937.43459      36.764334     -1878.1246      31.054894      31.207913      62.413005    
      8500   389.1124      -14580.02       568.05931      678.64149      1645.4223      31.063399      31.142611      62.481418    
      8600   387.24964     -14585.035     -1785.8227     -1871.7174     -1191.7341      31.087759      31.182997      62.477994    
      8700   385.51238     -14591.601      401.29263      2630.6573     -745.33383      30.999438      31.214218      62.257876    
      8800   374.57915     -14592.751     -44.84614      -1139.7674      1578.0234      31.119556      31.119647      62.044243    
      8900   361.80133     -14593.972     -1041.0169     -1131.2665     -1646.6999      31.071269      31.242697      62.166343    
      9000   365.03664     -14602.07       3230.8137      3710.4328      1969.0994      31.004196      31.193044      62.175253    
      9100   350.62018     -14602.186      99.946126     -2015.2448      52.433989      31.129507      31.166446      61.944015    
      9200   347.74006     -14609.044     -17.68155       556.35355     -1530.9013      31.023264      31.25148       61.96839     
      9300   350.00043     -14616.319      1231.5526      917.59998      1984.7403      31.037223      31.167225      62.054343    
      9400   336.54173     -14615.156     -1272.0181     -1769.4219     -874.3392       31.07183       31.192301      61.869661    
      9500   334.45581     -14621.648      538.08543      1450.2474     -154.83502      30.997302      31.194701      62.084002    
      9600   326.954       -14624.092      709.69082     -231.26994      1361.2469      31.043713      31.138789      62.087819    
      9700   317.36646     -14625.827     -938.77049     -1010.6278     -1451.6297      31.026278      31.19065       61.943145    
      9800   318.72813     -14633.132      923.52648      1812.0862      921.25538      30.980047      31.136896      61.960273    
      9Comm    | 0.34258    | 2.0198     | 3.6603     |  95.5 | 15.50
Output  | 0.0011154  | 0.0014212  | 0.0023117  |   1.4 |  0.01
Modify  | 0.17218    | 0.40787    | 1.0765     |  60.5 |  3.13
Other   |            | 0.04024    |            |       |  0.31

Nlocal:        1083.75 ave        1344 max         853 min
Histogram: 1 0 1 0 0 0 1 0 0 1
Nghost:        3671.75 ave        4485 max        2539 min
Histogram: 1 0 0 0 0 1 0 0 1 1
Neighs:         100726 ave      145610 max       65255 min
Histogram: 2 0 0 0 0 0 0 1 0 1

Total # of neighbors = 402906
Ave neighs/atom = 92.942561
Neighbor list builds = 117
Dangerous builds = 0
=== Phase 3: Define Grips ===
504 atoms in group bottom
363 atoms in group top
3468 atoms in group mobile
Bottom grip: 504 atoms
Top grip:    363 atoms
Mobile:      3468 atoms
=== Phase 4: Equilibration with Grips ===
Setting up Verlet run ...
  Unit style    : metal
  Current step  : 0
  Time step     : 0.002
Per MPI rank memory allocation (min/avg/max) = 3.495 | 3.732 | 3.972 Mbytes
   Step          Temp          PotEng         Press           Pxx            Pyy             Lx             Ly             Lz      
         0   240.67527     -14637.86      -1677.8522     -67.51639      -2410.2879      30.978177      31.165816      61.881892    
       100   263.84917     -14624.753     -1079.6892     -2033.7069     -215.55251    unfix cool

# 焼きなまし後の座標を基準にグリップ領域を定義
print '=== Phase 3: Define Grips ==='
=== Phase 3: Define Grips ===
variable zmin equal bound(all,zmin)
variable zmax equal bound(all,zmax)
variable grip_thick equal 5.0
variable zlo_grip equal ${zmin}+${grip_thick}
variable zlo_grip equal 1.50746660299643+${grip_thick}
variable zlo_grip equal 1.50746660299643+5
variable zhi_grip equal ${zmax}-${grip_thick}
variable zhi_grip equal 63.3765531963721-${grip_thick}
variable zhi_grip equal 63.3765531963721-5

region rgn_bot block INF INF INF INF INF ${zlo_grip}
region rgn_bot block INF INF INF INF INF 6.50746660299643
region rgn_top block INF INF INF INF ${zhi_grip} INF
region rgn_top block INF INF INF INF 58.3765531963721 INF
group bottom region rgn_bot
504 atoms in group bottom
group top region rgn_top
363 atoms in group top
group mobile subtract all bottom top
3468 atoms in group mobile

print 'Bottom grip: $(count(bottom)) atoms'
Bottom grip: 504 atoms
print 'Top grip:    $(count(top)) atoms'
Top grip:    363 atoms
print 'Mobile:      $(count(mobile)) atoms'
Mobile:      3468 atoms

print '=== Phase 4: Equilibration with Grips ==='
=== Phase 4: Equilibration with Grips ===
reset_timestep 0
velocity bottom set 0.0 0.0 0.0
velocity top set 0.0 0.0 0.0
# グリップ: nve（時間積分）+ setforce 0（力ゼロ）→ 等速運動
fix nve_bot bottom nve
fix nve_top top nve
fix freeze_bot bottom setforce 0.0 0.0 0.0
fix freeze_top top setforce 0.0 0.0 0.0
fix eq mobile npt temp 300.0 300.0 0.1 x 0.0 0.0 1.0 y 0.0 0.0 1.0
run 5000
Per MPI rank memory allocation (min/avg/max) = 3.495 | 3.732 | 3.972 Mbytes
   Step          Temp          PotEng         Press           Pxx            Pyy             Lx             Ly             Lz      
         0   240.67527     -14637.86      -1677.8522     -67.51639      -2410.2879      30.978177      31.165816      61.881892    
       100   263.84917     -14624.753     -1079.6892     -2033.7069     -215.55251      31.070283      3      1700   301.31972     -14604.807      79.205545      293.37486     -513.02536      31.019594      31.20495       61.881892    
      1800   292.02532     -14605.116     -172.22662     -1223.0178      566.94214      31.078941      31.150852      61.881892    
      1900   300.59054     -14604.105     -1100.2456     -525.03871     -2404.676       31.032986      31.229147      61.881892    
      2000   300.78364     -14602.171     -812.11382     -1915.1609      178.28665      31.105653      31.147331      61.881892    
      2100   298.01846     -14607.394     -279.73141      526.68438     -1501.8782      31.00549       31.218212      61.881892    
      2200   297.7583      -14602.71       240.37463     -540.75109      817.08619      31.065007      31.158099      61.881892    
      2300   305.14425     -14604.966      668.58104      808.98733      197.44516      31.0317        31.181616      61.881892    
      2400   296.9763      -14604.406      1696.4674      1817.1829      1899.5403      31.023497      31.153829      61.881892    
      2500   296.1682      -14606.266      1516.85        1961.3751      1425.6047      31.022048      31.162702      61.881892    
      2600   299.42398     -14601.759      1228.4285      303.06964      1218.691       31.059025      31.154542      61.881892    
      2700   292.61818     -14599.963      159.02495      359.02424     -699.1253       31.029954      31.209058      61.881892    
      2800   297.5361      -14606.92      -1368.5004     -2339.7706     -1096.5071      31.105349      31.157065      61.881892    
      2900   300.19909     -14601.201     -1204.0088     -979.95285     -2390.6043      31.064692      31.211353      61.881892    
      3000   297.22872     -14601.867     -592.50034     -1503.3086     -188.98224      31.084758      31.16306       61.881892    
      3100   300.31541     -14606.65      -233.966        48.828343     -881.99109      31.042991      31.183716      61.881892    
      3200   308.08598     -14602.945      129.52404     -463.56794      486.05469      3137486     -513.02536      31.019594      31.20495       61.881892    
      1800   292.02532     -14605.116     -172.22662     -1223.0178      566.94214      31.078941      31.150852      61.881892    
      1900   300.59054     -14604.105     -1100.2456     -525.03871     -2404.676       31.032986      31.229147      61.881892    
      2000   300.78364     -14602.171     -812.11382     -1915.1609      178.28665      31.105653      31.147331      61.881892    
      2100   298.01846     -14607.394     -279.73141      526.68438     -1501.8782      31.00549       31.218212      61.881892    
      2200   297.7583      -14602.71       240.37463     -540.75109      817.08619      31.065007      31.158099      61.881892    
      2300   305.14425     -14604.966      668.58104      808.98733      197.44516      31.0317        31.181616      61.881892    
      2400   296.9763      -14604.406      1696.4674      1817.1829      1899.5403      31.023497      31.153829      61.881892    
      2500   296.1682      -14606.266      1516.85        1961.3751      1425.6047      31.022048      31.162702      61.881892    
      2600   299.42398     -14601.759      1228.4285      303.06964      1218.691       31.059025      31.154542      61.881892    
      2700   292.61818     -14599.963      159.02495      359.02424     -699.1253       31.029954      31.209058      61.881892    
      2800   297.5361      -14606.92      -1368.5004     -2339.7706     -1096.5071      31.105349      31.157065      61.881892    
      2900   300.19909     -14601.201     -1204.0088     -979.95285     -2390.6043      31.064692      31.211353      61.881892    
      3000   297.22872     -14601.867     -592.50034     -1503.3086     -188.98224      31.084758      31.16306       61.881892    
      3100   300.31541     -14606.65      -233.966        48.828343     -881.99109      31.042991      31.183716      61.881892    
      3200   308.08598     -14602.945      129.52404     -463.56794      486.05469      31.0837        3      4800   294.11082     -14603.672     -152.17761     -1522.5968      800.864        31.10437       31.125028      61.881892    
      4900   300.51067     -14606.16       63.774187      1568.7027     -1736.598       31.001573      31.217832      61.881892    
      5000   304.0918      -14602.269     -101.95204     -866.0677       346.56842      31.07215       31.161864      61.881892    
Loop time of 12.5442 on 4 procs for 5000 steps with 4335 atoms

Performance: 68.876 ns/day, 0.348 hours/ns, 398.589 timesteps/s, 1.728 Matom-step/s
103.7% CPU use with 4 MPI tasks x 1 OpenMP threads

MPI task timing breakdown:
Section |  min time  |  avg time  |  max time  |%varavg| %total
---------------------------------------------------------------
Pair    | 8.6322     | 10.133     | 11.982     |  46.9 | 80.78
Neigh   | 0.071664   | 0.10791    | 0.15531    |  10.1 |  0.86
Comm    | 0.15891    | 1.8607     | 3.5836     | 100.0 | 14.83
Output  | 0.0010819  | 0.0014619  | 0.002558   |   1.7 |  0.01
Modify  | 0.19579    | 0.404      | 0.9959     |  53.8 |  3.22
Other   |            | 0.03749    |            |       |  0.30

Nlocal:        1083.75 ave        1344 max         851 min
Histogram: 1 0 1 0 0 0 1 0 0 1
Nghost:        3653.25 ave        4475 max        2531 min
Histogram: 1 0 0 0 0 1 0 1 0 1
Neighs:         100369 ave      145084 max       64892 min
Histogram: 2 0 0 0 0 0 0 1 0 1

Total # of neighbors = 401477
Ave neighs/atom = 92.612918
Neighbor list builds = 67
Dangerous builds = 0
=== Phase 5: Tensile Test ===
Initial grip distance L0 = 57.0085934403111 Ang
Pull velocity = 0.114017186880622 Ang/ps (erate=0.002/ps)
Setting up Verlet run ...
  Unit style    : metal
  Current step  : 0
  Time step     : 0.002
Per MPI rank memory allocation (min/avg/max) = 4.995 | 5.232 | 5.472 Mbytes
   Step          Temp         v_strain     v_stress_zz        Pxx            Pyy             Lx             Ly           v_Lmat    
         0   304.10357     -7.4782698e-16 -0.023228918   -866.0677       346.56842      31.07215       31.161864      57.008593    
       100   271.53586      0.0004         0.32615397    -3189.9745     -1998.1889      31.07215       31.161864      57.031397    
       200   242.22069      0.0008         0.54745132    -5451.6683     -3912.6203      31.07215       31.161864      57.0542      
       300   235.26153      0.0012         0.56710444    -6095.5856     -5083.8112      31.07215       31.161864      57.077004    
       400   244.31571      0.0016         0.58579829    -5089.5703     -5216.6501      31.07215       31.161864      57.099807    
       500   246.65779      0.002          0.60473425    -5670.5868     -4869.1889      31.07215       31.161864      57.122611    
       600   238.78296      0.0024         0.67327214    -6323.0509     -5822.7308      31.07215       31.161864      57.145414    
       700   239.50869      0.0028         0.69970414    -5969.2836     -5377.8775      31.07215       31.161864      57.168218    
       800   238.28618      0.0032         0.76909842    -5979.2188     -5458.96        31.07215       31.161864      57.191021    
       900   235.676        0.0036         0.85178957    -7090.0721     -6414.9999      31.07215       31.161864      57.213824    
      1000   239.1139       0.004          0.881744      -7286.4343     -6006.3751      31.07215       31.161864      57.236628    
      1100   242.20127      0.0044         0.97197775    -7167.1311     -6379.8729      31.07215       31.161864      unfix eq

print '=== Phase 5: Tensile Test ==='
=== Phase 5: Tensile Test ===
reset_timestep 0

# グリップ重心間距離で初期材料長を定義
variable zcm_bot equal xcm(bottom,z)
variable zcm_top equal xcm(top,z)
variable tmp_L equal v_zcm_top-v_zcm_bot
variable L0 equal ${tmp_L}
variable L0 equal 57.0085934403111
print 'Initial grip distance L0 = ${L0} Ang'
Initial grip distance L0 = 57.0085934403111 Ang

# 引っ張り速度 = erate × L0
variable vpull equal 0.002*v_L0
velocity top set 0.0 0.0 ${vpull}
velocity top set 0.0      1600   240.2904       0.0064         1.1280377     -8166.6813     -7570.0211      31.07215       31.161864      57.373448    
      1700   242.30003      0.0068         1.1393344     -8286.0464     -7620.6305      31.07215       31.161864      57.396252    
      1800   232.67113      0.0072         1.2151786     -8859.6456     -8090.0139      31.07215       31.161864      57.419055    
      1900   238.23872      0.0076         1.2377724     -8710.6006     -8223.1061      31.07215       31.161864      57.441859    
      2000   244.87777      0.008          1.3443558     -9242.6257     -9032.7882      31.07215       31.161864      57.464662    
      2100   232.16943      0.0084         1.4057196     -9847.4758     -8601.8606      31.07215       31.161864      57.487466    
      2200   243.71181      0.0088         1.3915652     -9652.9092     -9052.5893      31.07215       31.161864      57.510269    
      2300   243.81227      0.0092         1.4790489     -9850.2362     -9532.7568      31.07215       31.161864      57.533072    
      2400   238.25637      0.0096         1.4413729     -10609.348     -9880.1649      31.07215       31.161864      57.555876    
      2500   240.81957      0.01           1.5159818     -10148.523     -9806.7807      31.07215       31.161864      57.578679    
      2600   237.2994       0.0104         1.5428396     -10177.676     -9802.9321      31.07215       31.161864      57.601483    
      2700   242.35665      0.0108         1.5159081     -10165.205     -9479.3183      31.07215       31.161864      57.624286    
      2800   239.20716      0.0112         1.6158679     -11051.31      -10043.079      31.07215       31.161864      57.64709     
      2900   239.17166      0.0116         1.6208865     -11225.162     -10281.075      31.07215       31.161864      57.669893    
      3000   249.0189       0.012          1.6935283     -11183.059     -10397.58       31.07215       31.161864      57.692697    
      3100   235.55586      0.0124         1.7514342     -11167.109     -10548.053      31.07215       31.161864      57.7155      
      3200   237.54978      0.0128         1.7893851     -11840.202     -10947.593      31.07215       31.161864      57.738303    
      3300   240.02678      0.0132         1.7846312     -11736.001     -10917.366      31.07215       31.161864      57.761107    
      3400   240.09717      0.0136         1.8728255     -12083.344     -10979.578      31.07215       31.161864      57.78391     
      3500   238.24156      0.014          1.9130259     -12470.749     -11779.386      31.07215       31.161864      57.806714    
      3600   240.73355      0.0144         1.8370091     -12082.269     -12002.48       31.07215       31.161864      57.829517    
      3700   244.29364      0.0148         1.9937828     -12675.292     -11919.689      31.07215       31.161864      57.852321    
      3800   241.44346      0.0152         1.9650288     -13410.166     -12541.116      31.07215       31.161864      57.875124    
      3900   238.65535      0.0156         2.0542437     -13510.756     -12756.508      31.07215       31.161864      57.897927    
      4000   240.07254      0.016          2.0392028     -13117.008     -12746.737      31.07215       31.161864      57.920731    
      4100   241.52596      0.0164         2.1093518     -13567.26      -12699.725      31.07215       31.161864      57.943534    
      4200   239.28906      0.0168         2.2499571     -14338.964     -13382.897      31.07215       31.161864      57.9.1280377     -8166.6813     -7570.0211      31.07215       31.161864      57.373448    
      1700   242.30003      0.0068         1.1393344     -8286.0464     -7620.6305      31.07215       31.161864      57.396252    
      1800   232.67113      0.0072         1.2151786     -8859.6456     -8090.0139      31.07215       31.161864      57.419055    
      1900   238.23872      0.0076         1.2377724     -8710.6006     -8223.1061      31.07215       31.161864      57.441859    
      2000   244.87777      0.008          1.3443558        4700   243.69983      0.0188         2.3038166     -14512.22      -14406.348      31.07215       31.161864      58.080355    
      4800   232.13287      0.0192         2.3549784     -15226.643     -14260.124      31.07215       31.161864      58.103158    
      4900   243.49775      0.0196         2.4230159     -15416.546     -14420.771      31.07215       31.161864      58.125962    
      5000   243.20942      0.02           2.4218244     -15591.154     -14358.325      31.07215       31.161864      58.148765    
      5100   238.95087      0.0204         2.5224579     -15751.572     -14961.908      31.07215       31.161864      58.171569    
      5200   239.38246      0.0208         2.4441448     -15253.066     -15010.524      31.07215       31.161864      58.194372    
      5300   239.55067      0.0212         2.5808618     -15963.495     -15237.854      31.07215       31.161864      58.217176    
      5400   239.41161      0.0216         2.636536      -16474.69      -15685.486      31.07215       31.161864      58.239979    
      5500   241.99433      0.022          2.5873491     -15844.499     -15019.032      31.07215       31.161864      58.262782    
      5600   240.178        0.0224         2.6681143     -16845.371     -15779.833      31.07215       31.161864      58.285586    
      5700   241.02647      0.0228         2.7462884     -17133.689     -16019.898      31.07215       31.161864      58.308389    
      5800   247.20667      0.0232         2.6636379     -16730.334     -15784.118      31.07215       31.161864      58.331193    
      5900   237.75041      0.0236         2.7335385     -16540.523     -15564.871      31.07215       31.161864      58.353996    
      6000   244.59623      0.024          2.7642742     -17747.215     -16866.079      31.07215       31.161864      58.3768      
      6100   242.14721      0.0244         2.7803793     -17651.541     -16866.285      31.07215       31.161864      58.399603    
      6200   240.29347      0.0248         2.8276821     -17746.038     -17076.101      31.07215       31.161864      58.422407    
      6300   237.93522      0.0252         2.853752      -17912.649     -17649.131      31.07215       31.161864      58.44521     
      6400   246.79272      0.0256         2.9518155     -18166.564     -17649.774      31.07215       31.161864      58.468013    
      6500   241.18436      0.026          2.9907601     -18279.874     -18273.022      31.07215       31.161864      58.490817    
      6600   238.70226      0.0264         3.0246662     -18381.155     -18109.19       31.07215       31.161864      58.51362     
      6700   244.02883      0.0268         2.9929641     -18750.962     -17836.894      31.07215       31.161864      58.536424    
      6800   239.38367      0.0272         2.9988645     -18947.94      -17782.286      31.07215       31.161864      58.559227    
      6900   232.44237      0.0276         3.0856556     -19467.482     -18176.856      31.07215       31.161864      58.582031    
      7000   240.15272      0.028          3.162729      -19078.095     -18425.909      31.07215       31.161864      58.604834    
      7100   241.20973      0.0284         3.0960715     -18843.875     -18317.899      31.07215       31.161864      58.627637    
      7200   243.68467      0.0288         3.2051971     -19709.171     -19193.011      31.07215       31.161864      58.650441    
      7300   238.20741      0.0292         3.2660655     -19784.832     -19574.375      31.07215       31.161864      58.673248166     -14512.22      -14406.348      31.07215       31.161864      58.080355    
      4800   232.13287      0.0192         2.3549784     -15226.643     -14260.124      31.07215       31.161864      58.103158    
      4900   243.49775      0.0196         2.4230159     -15416.546     -14420.771      31.07215       31.161864      58.125962    
      5000   243.20942      0.02           2.4218244     -15591.154     -14358.325      31.07215       31.161864      58.148765    
      5100   238.95087      0.0204         2.5224579        7800   241.29888      0.0312         3.3321423     -20687.509     -19530.096      31.07215       31.161864      58.787262    
      7900   239.25222      0.0316         3.3597044     -20816.553     -19723.624      31.07215       31.161864      58.810065    
      8000   240.4653       0.032          3.3568384     -20727.112     -19849.057      31.07215       31.161864      58.832868    
      8100   246.90776      0.0324         3.4343832     -20953.359     -19537.909      31.07215       31.161864      58.855672    
      8200   237.22721      0.0328         3.5150225     -21645.895     -19756.919      31.07215       31.161864      58.878475    
      8300   237.83372      0.0332         3.5631801     -21856.928     -20581.559      31.07215       31.161864      58.901279    
      8400   245.04069      0.0336         3.5409261     -22228.426     -20188.752      31.07215       31.161864      58.924082    
      8500   236.47511      0.034          3.6137509     -22576.402     -20813.35       31.07215       31.161864      58.946886    
      8600   238.91177      0.0344         3.6505159     -22677.602     -20856.393      31.07215       31.161864      58.969689    
      8700   236.37826      0.0348         3.6118118     -22637.166     -20498.82       31.07215       31.161864      58.992492    
      8800   242.40382      0.0352         3.6211519     -22510.329     -20954.052      31.07215       31.161864      59.015296    
      8900   239.44846      0.0356         3.5658688     -22133.474     -21226.633      31.07215       31.161864      59.038099    
      9000   234.9776       0.036          3.6125047     -22709.446     -21697.657      31.07215       31.161864      59.060903    
      9100   244.56061      0.0364         3.6440756     -23345.472     -21800.606      31.07215       31.161864      59.083706    
      9200   238.26301      0.0368         3.639717      -22604.308     -21761.487      31.07215       31.161864      59.10651     
      9300   237.86853      0.0372         3.7979532     -23750.75      -22805.539      31.07215       31.161864      59.129313    
      9400   232.69676      0.0376         3.7927717     -23906.331     -22905.838      31.07215       31.161864      59.152117    
      9500   241.07059      0.038          3.8349353     -23672.881     -22937.802      31.07215       31.161864      59.17492     
      9600   239.86734      0.0384         3.8099945     -23370.558     -23161.625      31.07215       31.161864      59.197723    
      9700   237.69908      0.0388         3.9258086     -24461.041     -23560.122      31.07215       31.161864      59.220527    
      9800   241.92999      0.0392         3.8837356     -23956.742     -22420.611      31.07215       31.161864      59.24333     
      9900   243.2288       0.0396         3.850444      -24644.254     -23166.514      31.07215       31.161864      59.266134    
     10000   238.28585      0.04           3.9334119     -25379.335     -23383.01       31.07215       31.161864      59.288937    
     10100   244.4487       0.0404         3.8691249     -25293.962     -22688.227      31.07215       31.161864      59.311741    
     10200   240.24512      0.0408         3.8480649     -25812.588     -22891.054      31.07215       31.161864      59.334544    
     10300   239.9041       0.0412         3.9084794     -26672.965     -23524.29       31.07215       31.161864      59.357347    
     10400   238.40136      0.0416         3.9895899     -26393.786     -23190.202      31.07215       31.161864      59.380151        -20687.509     -19530.096      31.07215       31.161864      58.787262    
      7900   239.25222      0.0316         3.3597044     -20816.553     -19723.624      31.07215       31.161864      58.810065    
      8000   240.4653       0.032          3.3568384     -20727.112     -19849.057      31.07215       31.161864      58.832868    
      8100   246.90776      0.0324         3.4343832     -20953.359     -19537.909      31.07215       31.161864      58.855672    
      8200   237.22721      0.0328         3.5150225       10900   238.65152      0.0436         4.0979742     -27688.292     -24170.692      31.07215       31.161864      59.494168    
     11000   239.32062      0.044          4.0290229     -28067.201     -23460.41       31.07215       31.161864      59.516972    
     11100   236.60826      0.0444         4.0587153     -27916.568     -24114.357      31.07215       31.161864      59.539775    
     11200   239.69444      0.0448         4.1256274     -28306.478     -24180.33       31.07215       31.161864      59.562578    
     11300   235.99713      0.0452         4.1718744     -28455.058     -24622.473      31.07215       31.161864      59.585382    
     11400   239.71764      0.0456         4.1984297     -28446.88      -24502.945      31.07215       31.161864      59.608185    
     11500   243.37773      0.046          4.2778342     -28639.948     -24862.089      31.07215       31.161864      59.630989    
     11600   238.07648      0.0464         4.3446467     -29384.828     -24856.092      31.07215       31.161864      59.653792    
     11700   240.55767      0.0468         4.3273219     -29004.412     -24938.862      31.07215       31.161864      59.676596    
     11800   242.88319      0.0472         4.3513597     -29198.761     -25367.586      31.07215       31.161864      59.699399    
     11900   239.8255       0.0476         4.4593585     -29466.13      -25096.022      31.07215       31.161864      59.722202    
     12000   234.76455      0.048          4.4601199     -29670.235     -25075.728      31.07215       31.161864      59.745006    
     12100   240.48631      0.0484         4.4456409     -29568.311     -24817.315      31.07215       31.161864      59.767809    
     12200   234.82092      0.0488         4.4754274     -29630.21      -25556.952      31.07215       31.161864      59.790613    
     12300   243.15388      0.0492         4.5376693     -30051.253     -25837.895      31.07215       31.161864      59.813416    
     12400   241.79419      0.0496         4.5036555     -30111.787     -25283.247      31.07215       31.161864      59.83622     
     12500   235.8655       0.05           4.5949007     -29988.3       -25959.585      31.07215       31.161864      59.859023    
     12600   240.88148      0.0504         4.6211286     -30343.694     -25969.415      31.07215       31.161864      59.881827    
     12700   238.69616      0.0508         4.6270729     -30152.037     -25993.056      31.07215       31.161864      59.90463     
     12800   237.90557      0.0512         4.7176292     -31049.721     -26491.227      31.07215       31.161864      59.927433    
     12900   243.38505      0.0516         4.7508041     -30697.115     -26801.577      31.07215       31.161864      59.950237    
     13000   243.63726      0.052          4.7180896     -31115.931     -26527.792      31.07215       31.161864      59.97304     
     13100   232.53113      0.0524         4.7176109     -31118.395     -27064.96       31.07215       31.161864      59.995844    
     13200   232.47988      0.0528         4.7305536     -31580.323     -27338.709      31.07215       31.161864      60.018647    
     13300   240.89605      0.0532         4.6910135     -31358.883     -27234.04       31.07215       31.161864      60.041451    
     13400   237.44704      0.0536         4.6810046     -31117.049     -27056.39       31.07215       31.161864      60.064254    
     13500   233.92312      0.054          4.7130816     -31084.878     -27822.988      31.07215       31.161864      60.087057    
   -27688.292     -24170.692      31.07215       31.161864      59.494168    
     11000   239.32062      0.044          4.0290229     -28067.201     -23460.41       31.07215       31.161864      59.516972    
     11100   236.60826      0.0444         4.0587153     -27916.568     -24114.357      31.07215       31.161864      59.539775    
     11200   239.69444      0.0448         4.1256274     -28306.478     -24180.33       31.07215       31.161864      59.562578    
     11300   235.99713      0.0452         4.1718744       14000   241.44497      0.056          4.9347508     -32619.057     -28547.542      31.07215       31.161864      60.201075    
     14100   237.53089      0.0564         4.98334       -32307.004     -28340.048      31.07215       31.161864      60.223878    
     14200   241.15761      0.0568         5.0152437     -32180.823     -28534.681      31.07215       31.161864      60.246682    
     14300   228.51561      0.0572         5.0612873     -33026.612     -28682.01       31.07215       31.161864      60.269485    
     14400   238.0419       0.0576         5.0934726     -32636.727     -28810.739      31.07215       31.161864      60.292288    
     14500   240.79108      0.058          5.0243338     -32349.535     -28916.152      31.07215       31.161864      60.315092    
     14600   238.84623      0.0584         5.0608065     -32476.733     -28791.734      31.07215       31.161864      60.337895    
     14700   241.33879      0.0588         5.0712529     -33429.796     -29648.164      31.07215       31.161864      60.360699    
     14800   243.93345      0.0592         4.9971113     -32790.246     -29443.632      31.07215       31.161864      60.383502    
     14900   239.32263      0.0596         5.0457227     -33107.824     -29154.897      31.07215       31.161864      60.406306    
     15000   232.94654      0.06           5.072116      -33059.455     -29430.911      31.07215       31.161864      60.429109    
     15100   242.35874      0.0604         5.0589838     -33224.754     -29596.968      31.07215       31.161864      60.451912    
     15200   242.3723       0.0608         5.1515606     -33384.246     -30022.275      31.07215       31.161864      60.474716    
     15300   236.45766      0.0612         5.2237779     -34376.543     -30759.493      31.07215       31.161864      60.497519    
     15400   240.64127      0.0616         5.2581606     -33601.105     -30309.289      31.07215       31.161864      60.520323    
     15500   243.14512      0.062          5.273353      -34090.143     -30091.915      31.07215       31.161864      60.543126    
     15600   232.76406      0.0624         5.359328      -34124.763     -30581.757      31.07215       31.161864      60.56593     
     15700   242.06838      0.0628         5.2824138     -34003.858     -30897.557      31.07215       31.161864      60.588733    
     15800   237.31414      0.0632         5.2084766     -34204.42      -30139.857      31.07215       31.161864      60.611537    
     15900   245.78876      0.0636         5.1539282     -33597.359     -30691.878      31.07215       31.161864      60.63434     
     16000   238.51922      0.064          5.2199066     -33826.055     -30861.841      31.07215       31.161864      60.657143    
     16100   239.43396      0.0644         5.1917221     -34723.235     -31224.728      31.07215       31.161864      60.679947    
     16200   247.13765      0.0648         5.1442481     -34471.277     -30815.204      31.07215       31.161864      60.70275     
     16300   235.20614      0.0652         5.141933      -34475.022     -31344.803      31.07215       31.161864      60.725554    
     16400   239.77311      0.0656         5.3017571     -35448.811     -31780.311      31.07215       31.161864      60.748357    
     16500   246.14963      0.066          5.2623198     -35986.293     -31823.641      31.07215       31.161864      60.771161    
     16600   242.06553      0.0664         5.3056561     -36751.211     -32295.68       31.07215       31.161864      60.793964    
     1619.057     -28547.542      31.07215       31.161864      60.201075    
     14100   237.53089      0.0564         4.98334       -32307.004     -28340.048      31.07215       31.161864      60.223878    
     14200   241.15761      0.0568         5.0152437     -32180.823     -28534.681      31.07215       31.161864      60.246682    
     14300   228.51561      0.0572         5.0612873     -33026.612     -28682.01       31.07215       31.161864      60.269485    
     14400   238.0419       0.0576         5.0934726       17100   236.27671      0.0684         5.204889      -37115.134     -32242.809      31.07215       31.161864      60.907981    
     17200   247.82654      0.0688         5.2098138     -36693.65      -32091.476      31.07215       31.161864      60.930785    
     17300   242.59743      0.0692         5.2730299     -37012.541     -32716.721      31.07215       31.161864      60.953588    
     17400   240.11291      0.0696         5.3090153     -36910.755     -32392.526      31.07215       31.161864      60.976392    
     17500   240.20285      0.07           5.3564123     -37066.934     -32292.875      31.07215       31.161864      60.999195    
     17600   244.50545      0.0704         5.4232805     -37072.527     -32839.999      31.07215       31.161864      61.021998    
     17700   239.9087       0.0708         5.5019749     -38054.435     -33054.037      31.07215       31.161864      61.044802    
     17800   241.05997      0.0712         5.6198416     -37987.487     -33969.372      31.07215       31.161864      61.067605    
     17900   241.28299      0.0716         5.6267591     -37813.548     -32748.166      31.07215       31.161864      61.090409    
     18000   236.8539       0.072          5.5915822     -37592.758     -33006.673      31.07215       31.161864      61.113212    
     18100   237.72472      0.0724         5.6082231     -38392.848     -33733.538      31.07215       31.161864      61.136016    
     18200   240.55608      0.0728         5.4620575     -37486.641     -33405.401      31.07215       31.161864      61.158819    
     18300   240.8182       0.0732         5.4852876     -37009.196     -33840.87       31.07215       31.161864      61.181622    
     18400   240.29545      0.0736         5.4894318     -37695.611     -33930.037      31.07215       31.161864      61.204426    
     18500   239.19916      0.074          5.5381038     -37675.704     -34032.311      31.07215       31.161864      61.227229    
     18600   241.95533      0.0744         5.5738323     -37929.606     -34214.637      31.07215       31.161864      61.250033    
     18700   239.39047      0.0748         5.472702      -37433.691     -34007.842      31.07215       31.161864      61.272836    
     18800   241.56679      0.0752         5.7551674     -38834.065     -34750.514      31.07215       31.161864      61.29564     
     18900   237.74332      0.0756         5.7459161     -38561.198     -34497.338      31.07215       31.161864      61.318443    
     19000   245.11362      0.076          5.7645591     -38641.021     -34459.246      31.07215       31.161864      61.341247    
     19100   239.95531      0.0764         5.7498812     -38832.961     -35369.397      31.07215       31.161864      61.36405     
     19200   235.60856      0.0768         5.8518106     -38945.482     -35627.346      31.07215       31.161864      61.386853    
     19300   243.04093      0.0772         5.7353791     -38459.633     -35160.25       31.07215       31.161864      61.409657    
     19400   235.86317      0.0776         5.7306341     -38118.482     -35374.919      31.07215       31.161864      61.43246     
     19500   236.29671      0.078          5.6884789     -39501.296     -35786.027      31.07215       31.161864      61.455264    
     19600   240.10007      0.0784         5.6980936     -38866.817     -35406.797      31.07215       31.161864      61.478067    
     19700   242.4224       0.0788         5.6022245     -38575.903     -34706.869      31.07215       31.161864      61.500871    
     19800134     -32242.809      31.07215       31.161864      60.907981    
     17200   247.82654      0.0688         5.2098138     -36693.65      -32091.476      31.07215       31.161864      60.930785    
     17300   242.59743      0.0692         5.2730299     -37012.541     -32716.721      31.07215       31.161864      60.953588    
     17400   240.11291      0.0696         5.3090153     -36910.755     -32392.526      31.07215       31.161864      60.976392    
     17500   240.20285      0.07           5.3564123       20200   233.18546      0.0808         5.8128444     -39755.82      -36179.766      31.07215       31.161864      61.614888    
     20300   237.65877      0.0812         5.8623081     -39754.593     -35570.046      31.07215       31.161864      61.637691    
     20400   238.75229      0.0816         5.927369      -40426.158     -35888.327      31.07215       31.161864      61.660495    
     20500   236.27502      0.082          5.9696652     -40853.508     -36336.441      31.07215       31.161864      61.683298    
     20600   240.88979      0.0824         5.9715204     -40559.469     -35740.946      31.07215       31.161864      61.706102    
     20700   243.45866      0.0828         5.9018855     -41144.962     -35798.97       31.07215       31.161864      61.728905    
     20800   240.34329      0.0832         5.8527724     -40662.733     -36243.565      31.07215       31.161864      61.751708    
     20900   239.70858      0.0836         5.8101095     -40454.399     -35884.357      31.07215       31.161864      61.774512    
     21000   241.7755       0.084          5.7245702     -39536.347     -35571.864      31.07215       31.161864      61.797315    
     21100   238.2794       0.0844         5.8551026     -41142.827     -36136.639      31.07215       31.161864      61.820119    
     21200   237.45058      0.0848         5.8354991     -40708.079     -35806.871      31.07215       31.161864      61.842922    
     21300   239.97311      0.0852         5.9083316     -40914.437     -36186.914      31.07215       31.161864      61.865726    
     21400   239.13919      0.0856         5.9568059     -41294.916     -36354.423      31.07215       31.161864      61.888529    
     21500   248.17734      0.086          6.0304466     -40994.788     -36101.077      31.07215       31.161864      61.911332    
     21600   241.03765      0.0864         6.0831113     -41582.032     -37241.07       31.07215       31.161864      61.934136    
     21700   239.88228      0.0868         6.0411204     -41807.497     -37307.238      31.07215       31.161864      61.956939    
     21800   238.97877      0.0872         6.1405261     -41689.08      -37126.181      31.07215       31.161864      61.979743    
     21900   243.1587       0.0876         6.0840237     -41079.666     -37146.912      31.07215       31.161864      62.002546    
     22000   241.39511      0.088          6.1066014     -41845.246     -37910.725      31.07215       31.161864      62.02535     
     22100   240.0753       0.0884         5.9492446     -41086.31      -37096.242      31.07215       31.161864      62.048153    
     22200   243.52043      0.0888         5.6631213     -38883.775     -35580.578      31.07215       31.161864      62.070957    
     22300   241.84833      0.0892         5.5375645     -37998.681     -34432.365      31.07215       31.161864      62.09376     
     22400   242.16817      0.0896         5.3446967     -37000.445     -33105.26       31.07215       31.161864      62.116563    
     22500   248.79627      0.09           5.018169      -34412.048     -31837.573      31.07215       31.161864      62.139367    
     22600   245.10583      0.0904         4.4433204     -31100.05      -28418.053      31.07215       31.161864      62.16217     
     22700   250.09411      0.0908         3.8246943     -28422.546     -26951.678      31.07215       31.161864      62.184974    
     22800   244.96332      0.0912         3.1080978     -25818.046     -24844.454      31.07215       31.161864      62.207777    
     22900   2    -36179.766      31.07215       31.161864      61.614888    
     20300   237.65877      0.0812         5.8623081     -39754.593     -35570.046      31.07215       31.161864      61.637691    
     20400   238.75229      0.0816         5.927369      -40426.158     -35888.327      31.07215       31.161864      61.660495    
     20500   236.27502      0.082          5.9696652     -40853.508     -36336.441      31.07215       31.161864      61.683298    
     20600   240.88979      0.0824         5.9715204       23300   244.31469      0.0932         1.0300759     -15548.746     -14752.028      31.07215       31.161864      62.321794    
     23400   245.12409      0.0936         1.0952965     -15504.057     -13887.848      31.07215       31.161864      62.344598    
     23500   245.70289      0.094          1.2705999     -16147.221     -15098.249      31.07215       31.161864      62.367401    
     23600   235.06106      0.0944         1.4673027     -16093.783     -14416.36       31.07215       31.161864      62.390205    
     23700   243.68798      0.0948         1.5491543     -16516.83      -14188.737      31.07215       31.161864      62.413008    
     23800   238.95361      0.0952         1.7305733     -17941.282     -15613.213      31.07215       31.161864      62.435812    
     23900   236.27184      0.0956         1.7220877     -17678.141     -15002.387      31.07215       31.161864      62.458615    
     24000   249.14355      0.096          1.6304963     -17100.141     -14615.189      31.07215       31.161864      62.481418    
     24100   237.25174      0.0964         1.3785317     -16675.018     -13929.406      31.07215       31.161864      62.504222    
     24200   237.57704      0.0968         1.0709465     -15549.577     -12671.744      31.07215       31.161864      62.527025    
     24300   236.01477      0.0972         1.008618      -15406.673     -12111.244      31.07215       31.161864      62.549829    
     24400   244.83401      0.0976         0.91858917    -14872.205     -11745.07       31.07215       31.161864      62.572632    
     24500   243.10399      0.098          0.93966052    -14975.007     -12538.529      31.07215       31.161864      62.595436    
     24600   232.76735      0.0984         1.0101598     -14139.849     -13028.447      31.07215       31.161864      62.618239    
     24700   240.23843      0.0988         1.2742756     -14830.655     -13524.462      31.07215       31.161864      62.641042    
     24800   238.45658      0.0992         1.419446      -16332.22      -13434.4        31.07215       31.161864      62.663846    
     24900   236.54877      0.0996         1.5085236     -15571.391     -13618.217      31.07215       31.161864      62.686649    
     25000   241.30438      0.1            1.6279166     -16156.339     -13941.968      31.07215       31.161864      62.709453    
     25100   241.59109      0.1004         1.481953      -15583.55      -13353.323      31.07215       31.161864      62.732256    
     25200   245.23305      0.1008         1.3613981     -15509.406     -12635.098      31.07215       31.161864      62.75506     
     25300   240.34418      0.1012         1.2843715     -14771.367     -12830.616      31.07215       31.161864      62.777863    
     25400   240.50786      0.1016         1.0826476     -14189.303     -12271.938      31.07215       31.161864      62.800667    
     25500   248.32473      0.102          0.93601248    -13800.239     -11954.641      31.07215       31.161864      62.82347     
     25600   239.46444      0.1024         1.022327      -14033.602     -11855.48       31.07215       31.161864      62.846273    
     25700   244.53815      0.1028         0.94961767    -14018.311     -11679.404      31.07215       31.161864      62.869077    
     25800   236.13683      0.1032         1.1146793     -14145.649     -11557.337      31.07215       31.161864      62.89188     
     25900   236.86255      0.1036         1.306427      -15176.136     -12955.945      31.07215       31.161864      62.914684    
     26000   237.5-14752.028      31.07215       31.161864      62.321794    
     23400   245.12409      0.0936         1.0952965     -15504.057     -13887.848      31.07215       31.161864      62.344598    
     23500   245.70289      0.094          1.2705999     -16147.221     -15098.249      31.07215       31.161864      62.367401    
     23600   235.06106      0.0944         1.4673027     -16093.783     -14416.36       31.07215       31.161864      62.390205    
     23700   243.68798      0.0948         1.5491543       26400   241.18174      0.1056         1.5873611     -16326.345     -12447.152      31.07215       31.161864      63.028701    
     26500   236.74799      0.106          1.4351994     -16169.16      -11630.402      31.07215       31.161864      63.051504    
     26600   238.88177      0.1064         1.2577449     -15145.289     -11106.368      31.07215       31.161864      63.074308    
     26700   240.55478      0.1068         1.1994347     -15738.662     -10977.727      31.07215       31.161864      63.097111    
     26800   242.16697      0.1072         1.2748968     -16295.787     -10663.473      31.07215       31.161864      63.119915    
     26900   239.26567      0.1076         1.2129949     -15672.604     -10686.231      31.07215       31.161864      63.142718    
     27000   239.5525       0.108          1.3868899     -15860.06      -10595.377      31.07215       31.161864      63.165522    
     27100   249.33007      0.1084         1.6281759     -17097.774     -12138.891      31.07215       31.161864      63.188325    
     27200   235.92952      0.1088         1.8335797     -17331.684     -12965.981      31.07215       31.161864      63.211128    
     27300   240.9931       0.1092         1.9027591     -17869.75      -12563.362      31.07215       31.161864      63.233932    
     27400   238.78117      0.1096         2.0156638     -18654.476     -13012.088      31.07215       31.161864      63.256735    
     27500   236.39294      0.11           2.0188812     -18558.715     -12891.445      31.07215       31.161864      63.279539    
     27600   244.71477      0.1104         1.9065563     -17985.138     -11925.369      31.07215       31.161864      63.302342    
     27700   237.38567      0.1108         1.813495      -17665.318     -12563.029      31.07215       31.161864      63.325146    
     27800   237.58964      0.1112         1.5591107     -15770.894     -11709.613      31.07215       31.161864      63.347949    
     27900   244.93118      0.1116         1.4483783     -15787.882     -11240.809      31.07215       31.161864      63.370752    
     28000   247.75751      0.112          1.4141901     -16376.719     -11103.175      31.07215       31.161864      63.393556    
     28100   244.90714      0.1124         1.2843478     -14769.542     -11004.038      31.07215       31.161864      63.416359    
     28200   236.76488      0.1128         1.3963958     -15339.634     -11905.98       31.07215       31.161864      63.439163    
     28300   242.07256      0.1132         1.5512676     -16187.989     -11496.917      31.07215       31.161864      63.461966    
     28400   243.65503      0.1136         1.7631598     -16774.772     -12458.865      31.07215       31.161864      63.48477     
     28500   232.77986      0.114          2.0037612     -18368.948     -14263.07       31.07215       31.161864      63.507573    
     28600   235.74968      0.1144         1.9936764     -18225.732     -14138.411      31.07215       31.161864      63.530377    
     28700   243.28988      0.1148         2.0449968     -17581.58      -13430.928      31.07215       31.161864      63.55318     
     28800   234.18938      0.1152         2.0872622     -17842.905     -14791.408      31.07215       31.161864      63.575983    
     28900   242.38323      0.1156         2.0440968     -17883.244     -14682.094      31.07215       31.161864      63.598787    
     29000   238.93974      0.116          1.9148366     -17326.93      -13737.739      31.07215       31.161864      63.62159     
     29100   237.0572847.152      31.07215       31.161864      63.028701    
     26500   236.74799      0.106          1.4351994     -16169.16      -11630.402      31.07215       31.161864      63.051504    
     26600   238.88177      0.1064         1.2577449     -15145.289     -11106.368      31.07215       31.161864      63.074308    
     26700   240.55478      0.1068         1.1994347     -15738.662     -10977.727      31.07215       31.161864      63.097111    
     26800   242.16697      0.1072         1.2748968       29500   238.66728      0.118          1.4625675     -14877.055     -11252.609      31.07215       31.161864      63.735607    
     29600   240.25813      0.1184         1.4658995     -15547.34      -11304.739      31.07215       31.161864      63.758411    
     29700   237.65697      0.1188         1.6499658     -16337.493     -12190.71       31.07215       31.161864      63.781214    
     29800   245.05099      0.1192         1.6955904     -16602.305     -12493.784      31.07215       31.161864      63.804018    
     29900   241.63864      0.1196         1.6900983     -16149.153     -11553.953      31.07215       31.161864      63.826821    
     30000   236.02082      0.12           1.851885      -16394.569     -12625.611      31.07215       31.161864      63.849625    
     30100   239.52254      0.1204         1.8332365     -16887.891     -12416.617      31.07215       31.161864      63.872428    
     30200   243.86808      0.1208         1.6736167     -16561.831     -11601.598      31.07215       31.161864      63.895232    
     30300   246.70932      0.1212         1.6057154     -15844.542     -11740.851      31.07215       31.161864      63.918035    
     30400   241.97943      0.1216         1.6086513     -15961.432     -12192.843      31.07215       31.161864      63.940838    
     30500   236.71319      0.122          1.5031343     -14793.398     -11138.65       31.07215       31.161864      63.963642    
     30600   243.56843      0.1224         1.4646432     -15059.203     -11351.747      31.07215       31.161864      63.986445    
     30700   233.48607      0.1228         1.464465      -15116.946     -10917.624      31.07215       31.161864      64.009249    
     30800   239.44432      0.1232         1.4577097     -15198.461     -10784.244      31.07215       31.161864      64.032052    
     30900   242.12854      0.1236         1.4673562     -15729.407     -11236.033      31.07215       31.161864      64.054856    
     31000   238.60585      0.124          1.5857361     -15951.082     -11948.563      31.07215       31.161864      64.077659    
     31100   243.06513      0.1244         1.6469035     -15995.458     -12111.579      31.07215       31.161864      64.100462    
     31200   242.69094      0.1248         1.7130045     -16537.645     -11869.076      31.07215       31.161864      64.123266    
     31300   242.03651      0.1252         1.7042219     -16335.983     -11517.376      31.07215       31.161864      64.146069    
     31400   240.27564      0.1256         1.6556323     -15991.484     -10700.798      31.07215       31.161864      64.168873    
     31500   238.54021      0.126          1.749306      -16384.98      -11524.516      31.07215       31.161864      64.191676    
     31600   236.88818      0.1264         1.7226976     -16686.767     -11505.059      31.07215       31.161864      64.21448     
     31700   242.46409      0.1268         1.5454427     -16273.422     -11393.609      31.07215       31.161864      64.237283    
     31800   239.76948      0.1272         1.5992199     -15812.428     -10367.457      31.07215       31.161864      64.260087    
     31900   239.54655      0.1276         1.5790389     -16108.996     -11851.237      31.07215       31.161864      64.28289     
     32000   243.4299       0.128          1.4169008     -15552.143     -10593.365      31.07215       31.161864      64.305693    
     32100   245.31002      0.1284         1.5723848     -16732.472     -11427.513      31.07215       31.161864      64.328497    
     32200   235.65129    09      31.07215       31.161864      63.735607    
     29600   240.25813      0.1184         1.4658995     -15547.34      -11304.739      31.07215       31.161864      63.758411    
     29700   237.65697      0.1188         1.6499658     -16337.493     -12190.71       31.07215       31.161864      63.781214    
     29800   245.05099      0.1192         1.6955904     -16602.305     -12493.784      31.07215       31.161864      63.804018    
     29900   241.63864      0.1196         1.6900983       32600   243.80725      0.1304         1.4024175     -14835.508     -10519.771      31.07215       31.161864      64.442514    
     32700   236.37697      0.1308         1.3212451     -14538.643     -10973.906      31.07215       31.161864      64.465317    
     32800   245.74583      0.1312         1.3270677     -14195.095     -11029.307      31.07215       31.161864      64.488121    
     32900   243.35372      0.1316         1.2643825     -14094.04      -10740.714      31.07215       31.161864      64.510924    
     33000   239.05572      0.132          1.1909649     -13828.171     -10845.389      31.07215       31.161864      64.533728    
     33100   242.59253      0.1324         1.1249597     -13185.736     -9763.4415      31.07215       31.161864      64.556531    
     33200   243.42043      0.1328         0.94017102    -11944.304     -9285.5307      31.07215       31.161864      64.579335    
     33300   232.86038      0.1332         0.98672063    -12474.257     -9829.9574      31.07215       31.161864      64.602138    
     33400   232.52441      0.1336         0.93891107    -12503.559     -9638.085       31.07215       31.161864      64.624942    
     33500   243.3542       0.134          0.86201841    -12165.779     -9021.7115      31.07215       31.161864      64.647745    
     33600   238.19823      0.1344         0.86129522    -12442.615     -9359.0082      31.07215       31.161864      64.670548    
     33700   244.19654      0.1348         0.8188236     -11649.557     -8603.6757      31.07215       31.161864      64.693352    
     33800   241.46794      0.1352         0.86863415    -12593.366     -9000.6327      31.07215       31.161864      64.716155    
     33900   239.52822      0.1356         0.97895196    -13046.274     -9798.2231      31.07215       31.161864      64.738959    
     34000   243.49049      0.136          0.92385386    -12338.919     -9000.7528      31.07215       31.161864      64.761762    
     34100   239.83278      0.1364         0.96405298    -12965.666     -9839.2617      31.07215       31.161864      64.784566    
     34200   240.03554      0.1368         1.0343261     -13262.4       -9706.4253      31.07215       31.161864      64.807369    
     34300   239.34072      0.1372         1.0122767     -12895.169     -9120.433       31.07215       31.161864      64.830172    
     34400   245.56005      0.1376         0.93559581    -12305.849     -8890.4022      31.07215       31.161864      64.852976    
     34500   239.09854      0.138          0.87624032    -12734.762     -9378.9394      31.07215       31.161864      64.875779    
     34600   237.76516      0.1384         0.76957491    -11123.566     -8366.2633      31.07215       31.161864      64.898583    
     34700   240.01245      0.1388         0.72542875    -12403.958     -7857.7711      31.07215       31.161864      64.921386    
     34800   240.8154       0.1392         0.59806758    -11427.975     -7502.4152      31.07215       31.161864      64.94419     
     34900   235.24422      0.1396         0.79320573    -12583.534     -8620.3004      31.07215       31.161864      64.966993    
     35000   243.35234      0.14           0.89571943    -13102.5       -8131.1084      31.07215       31.161864      64.989797    
     35100   245.13846      0.1404         0.95989196    -13097.587     -8061.3428      31.07215       31.161864      65.0126      
     35200   234.87407      0.1408         1.0056725     -13214.82      -8537.6818      31.07215       31.161864      65.035403    
     35300   239.54267      0.    31.07215       31.161864      64.442514    
     32700   236.37697      0.1308         1.3212451     -14538.643     -10973.906      31.07215       31.161864      64.465317    
     32800   245.74583      0.1312         1.3270677     -14195.095     -11029.307      31.07215       31.161864      64.488121    
     32900   243.35372      0.1316         1.2643825     -14094.04      -10740.714      31.07215       31.161864      64.510924    
     33000   239.05572      0.132          1.1909649       35700   239.68529      0.1428         0.90487249    -12640.235     -7840.5013      31.07215       31.161864      65.149421    
     35800   236.37357      0.1432         0.9354072     -12970.727     -8253.5897      31.07215       31.161864      65.172224    
     35900   235.93623      0.1436         0.8574668     -12572.135     -7746.2953      31.07215       31.161864      65.195027    
     36000   239.32619      0.144          0.83827764    -11893.613     -7544.3429      31.07215       31.161864      65.217831    
     36100   239.39204      0.1444         0.83773743    -12834.075     -8094.7146      31.07215       31.161864      65.240634    
     36200   245.3702       0.1448         0.93365134    -12130.582     -8369.603       31.07215       31.161864      65.263438    
     36300   241.55891      0.1452         0.96945528    -12259.496     -8674.9923      31.07215       31.161864      65.286241    
     36400   241.76331      0.1456         1.1302895     -13114.017     -9107.6888      31.07215       31.161864      65.309045    
     36500   236.1278       0.146          1.1641191     -12885.536     -9561.7466      31.07215       31.161864      65.331848    
     36600   236.69167      0.1464         1.2710323     -13029.384     -10285.923      31.07215       31.161864      65.354652    
[...]
     44600   229.1336       0.1784               31.161864      66.563234    
     42000   239.07692      0.168          0.42244575    -9935.3562     -5660.3626      31.07215       31.161864      66.586037    
     42100   239.46243      0.1684         0.54282976    -10444.941     -6350.2355      31.07215       31.161864      66.608841    
     42200   237.15079      0.1688         0.58762703    -10973.686     -6325.5127      31.07215       31.161864      66.631644    
     42300   244.64143      0.1692         0.57495623      45000   241.14973      0.18           0.73509303    -11031.158     -6296.437       31.07215       31.161864      67.27014     
     45100   238.96131      0.1804         0.78657356    -11667.294     -7507.4259      31.07215       31.161864      67.292944    
     45200   240.35349      0.1808         0.75792062    -11778.547     -7452.5262      31.07215       31.161864      67.315747    
     45300   236.16985      0.1812         0.63909126    -10281.036     -6574.6169      31.07215       31.161864      67.338551    
     45400   240.81814      0.1816         0.63974176    -11092.586     -6323.096       31.07215       31.161864      67.361354    
     45500   240.22153      0.182          0.55131556    -10552.415     -6073.3845      31.07215       31.161864      67.384157    
     45600   243.99848      0.1824         0.44137486    -10215.132     -5686.561       31.07215       31.161864      67.406961    
     45700   239.60697      0.1828         0.58901078    -11297.909     -6507.2967      31.07215       31.161864      67.429764    
     45800   243.97292      0.1832         0.65355448    -11115.14      -6625.9386      31.07215       31.161864      67.452568    
     45900   243.47996      0.1836         0.66547179    -10559.087     -6222.1146      31.07215       31.161864      67.475371    
     46000   238.43698      0.184          0.76150152    -11110.85      -7442.7894      31.07215       31.161864      67.498175    
     46100   243.81747      0.1844         0.88848166    -12077.427     -7848.5704      31.07215       31.161864      67.520978    
     46200   239.1834       0.1848         0.87260373    -11614.474     -7502.2365      31.07215       31.161864      67.543782    
     46300   237.95962      0.1852         0.9376647     -11841.655     -7729.2754      31.07215       31.161864      67.566585    
     46400   243.02007      0.1856         0.83860315    -11490.99      -7638.75        31.07215       31.161864      67.589388    
     46500   240.73914      0.186          0.79706559    -12043.059     -7560.8543      31.07215       31.161864      67.612192    
     46600   243.05615      0.1864         0.71753807    -11224.37      -6956.759       31.07215       31.161864      67.634995    
     46700   243.68944      0.1868         0.62893879    -10463.619     -6139.053       31.07215       31.161864      67.657799    
     46800   239.43543      0.1872         0.53925165    -10456.015     -6535.5681      31.07215       31.161864      67.680602    
     46900   239.49047      0.1876         0.55401311    -10191.074     -6702.8903      31.07215       31.161864      67.703406    
     47000   244.16551      0.188          0.48745603    -9759.4424     -5943.3789      31.07215       31.161864      67.726209    
     47100   236.31708      0.1884         0.68118765    -11214.639     -7412.3309      31.07215       31.161864      67.749012    
     47200   239.77901      0.1888         0.68879079    -11311.208     -6637.305       31.07215       31.161864      67.771816    
     47300   245.94077      0.1892         0.67323559    -10694.425     -6567.8131      31.07215       31.161864      67.794619    
     47400   236.79497      0.1896         0.70949324    -11033.325     -6296.7346      31.07215       31.161864      67.817423    
     47500   239.84414      0.19           0.74555431    -11167.407     -6869.5209      31.07215       31.161864      67.840226    
     47600   247.12713      0.1904         0.81597193    -11539.336     -7466.0967      31.07215       31.161864      67.86303     
     47700   238.40577      0.1908         0.7   31.161864      67.27014     
     45100   238.96131      0.1804         0.78657356    -11667.294     -7507.4259      31.07215       31.161864      67.292944    
     45200   240.35349      0.1808         0.75792062    -11778.547     -7452.5262      31.07215       31.161864      67.315747    
     45300   236.16985      0.1812         0.63909126    -10281.036     -6574.6169      31.07215       31.161864      67.338551    
     45400   240.81814      0.1816         0.63974176      48100   243.13682      0.1924         0.28617921    -9710.2128     -4852.3119      31.07215       31.161864      67.977047    
     48200   237.19415      0.1928         0.23103495    -9190.3818     -4878.3931      31.07215       31.161864      67.99985     
     48300   235.77969      0.1932         0.32079256    -9873.6428     -5038.4811      31.07215       31.161864      68.022654    
     48400   240.89583      0.1936         0.41161432    -9722.7701     -5986.2226      31.07215       31.161864      68.045457    
     48500   240.51936      0.194          0.46590949    -10275.131     -5315.4643      31.07215       31.161864      68.068261    
     48600   242.74427      0.1944         0.55980681    -10517.503     -5943.8636      31.07215       31.161864      68.091064    
     48700   235.58504      0.1948         0.63046703    -10947.475     -6433.1138      31.07215       31.161864      68.113867    
     48800   240.49734      0.1952         0.6810763     -10924.412     -6516.557       31.07215       31.161864      68.136671    
     48900   237.5522       0.1956         0.59173143    -10892.735     -6508.1052      31.07215       31.161864      68.159474    
     49000   239.05155      0.196          0.51863038    -10048.048     -5880.9555      31.07215       31.161864      68.182278    
     49100   242.06098      0.1964         0.44953341    -9679.9527     -6012.9502      31.07215       31.161864      68.205081    
     49200   241.42628      0.1968         0.26502489    -9574.9434     -5628.1894      31.07215       31.161864      68.227885    
     49300   229.98781      0.1972         0.19218535    -8813.7051     -5422.3517      31.07215       31.161864      68.250688    
     49400   236.49912      0.1976         0.1388171     -8445.2645     -4599.7267      31.07215       31.161864      68.273492    
     49500   241.30993      0.198          0.15626721    -8697.2855     -4873.3133      31.07215       31.161864      68.296295    
     49600   239.73182      0.1984         0.23215216    -9285.813      -5481.0479      31.07215       31.161864      68.319098    
     49700   239.89452      0.1988         0.20704357    -8849.8384     -4612.961       31.07215       31.161864      68.341902    
     49800   245.5519       0.1992         0.4178561     -10011.935     -5012.5755      31.07215       31.161864      68.364705    
     49900   238.30592      0.1996         0.52152957    -10634.701     -6278.7297      31.07215       31.161864      68.387509    
     50000   233.84436      0.2            0.56743567    -10056.423     -5533.4398      31.07215       31.161864      68.410312    
     50100   242.81564      0.2004         0.57096822    -10575.585     -6485.3784      31.07215       31.161864      68.433116    
     50200   236.95763      0.2008         0.57143428    -10583.229     -5325.0207      31.07215       31.161864      68.455919    
     50300   240.71049      0.2012         0.49349834    -9926.8934     -5723.8602      31.07215       31.161864      68.478722    
     50400   240.4799       0.2016         0.39575361    -9885.4713     -5665.8928      31.07215       31.161864      68.501526    
     50500   239.75446      0.202          0.31234431    -9608.7603     -5252.2998      31.07215       31.161864      68.524329    
     50600   242.3912       0.2024         0.24533201    -9547.7498     -4648.0894      31.07215       31.161864      68.547133    
     50700   243.02636      0.2028         0.17386938    -8934.9255     -4540.2462      31.07215       31.161864      68.569936    
     50800   237.68386      0.2032         0.212851.161864      67.977047    
     48200   237.19415      0.1928         0.23103495    -9190.3818     -4878.3931      31.07215       31.161864      67.99985     
     48300   235.77969      0.1932         0.32079256    -9873.6428     -5038.4811      31.07215       31.161864      68.022654    
     48400   240.89583      0.1936         0.41161432    -9722.7701     -5986.2226      31.07215       31.161864      68.045457    
     48500   240.51936      0.194          0.46590949      51200   240.82134      0.2048         0.54685374    -10454.273     -5713.0558      31.07215       31.161864      68.683953    
     51300   242.41515      0.2052         0.5807823     -10288.401     -5810.2468      31.07215       31.161864      68.706757    
     51400   238.1881       0.2056         0.63549518    -10233.032     -6120.7974      31.07215       31.161864      68.72956     
     51500   242.82636      0.206          0.60809993    -10831.961     -6834.5541      31.07215       31.161864      68.752364    
     51600   242.41477      0.2064         0.52018534    -9961.0572     -5897.125       31.07215       31.161864      68.775167    
     51700   239.50136      0.2068         0.40363987    -9502.7348     -5296.1202      31.07215       31.161864      68.797971    
     51800   240.28748      0.2072         0.31828157    -9387.9898     -5541.0223      31.07215       31.161864      68.820774    
     51900   245.58964      0.2076         0.31014151    -9280.1261     -4865.6935      31.07215       31.161864      68.843577    
     52000   243.25017      0.208          0.24617113    -8817.1014     -4723.9096      31.07215       31.161864      68.866381    
     52100   236.72209      0.2084         0.35514322    -10137.05      -5589.4687      31.07215       31.161864      68.889184    
     52200   243.51083      0.2088         0.36851271    -9187.3589     -5947.9007      31.07215       31.161864      68.911988    
     52300   236.62823      0.2092         0.48587473    -9452.6596     -5847.9979      31.07215       31.161864      68.934791    
     52400   234.02172      0.2096         0.44557644    -9623.468      -5473.954       31.07215       31.161864      68.957595    
     52500   243.14194      0.21           0.61741719    -10727.139     -6495.9986      31.07215       31.161864      68.980398    
     52600   238.6378       0.2104         0.78203905    -11493.521     -7281.6564      31.07215       31.161864      69.003202    
     52700   237.04347      0.2108         0.70647579    -10948.113     -6500.5008      31.07215       31.161864      69.026005    
     52800   241.07292      0.2112         0.47415185    -9956.2013     -5638.9072      31.07215       31.161864      69.048808    
     52900   243.30042      0.2116         0.50904926    -10286.941     -5842.3348      31.07215       31.161864      69.071612    
     53000   239.74727      0.212          0.48057922    -10131.829     -6067.3864      31.07215       31.161864      69.094415    
     53100   238.71332      0.2124         0.34365329    -9731.7673     -5817.1564      31.07215       31.161864      69.117219    
     53200   235.47482      0.2128         0.32320664    -9804.3042     -5789.1658      31.07215       31.161864      69.140022    
     53300   240.28682      0.2132         0.30650569    -9670.3965     -5140.2747      31.07215       31.161864      69.162826    
     53400   240.86688      0.2136         0.32155955    -9358.4522     -5222.5035      31.07215       31.161864      69.185629    
     53500   238.72053      0.214          0.37339102    -9995.0765     -5321.9329      31.07215       31.161864      69.208432    
     53600   243.33067      0.2144         0.44110471    -10033.524     -5553.2591      31.07215       31.161864      69.231236    
     53700   238.36538      0.2148         0.54647181    -10648.763     -5222.7378      31.07215       31.161864      69.254039    
     53800   239.46998      0.2152         0.66400833    -11316.309     -6767.1268      31.07215       31.161864      69.276843    
     53900   246.46281      0.2156         0.6212426  1864      68.683953    
     51300   242.41515      0.2052         0.5807823     -10288.401     -5810.2468      31.07215       31.161864      68.706757    
     51400   238.1881       0.2056         0.63549518    -10233.032     -6120.7974      31.07215       31.161864      68.72956     
     51500   242.82636      0.206          0.60809993    -10831.961     -6834.5541      31.07215       31.161864      68.752364    
     51600   242.41477      0.2064         0.52018534      54300   244.29622      0.2172         0.38343885    -9425.5062     -5329.5785      31.07215       31.161864      69.39086     
     54400   240.76643      0.2176         0.31702966    -9517.6887     -4962.9946      31.07215       31.161864      69.413663    
     54500   239.73968      0.218          0.23672858    -9086.4151     -4926.8348      31.07215       31.161864      69.436467    
     54600   244.60208      0.2184         0.14990318    -8418.1083     -4286.0981      31.07215       31.161864      69.45927     
     54700   240.60418      0.2188         0.25335914    -8824.4676     -4344.1737      31.07215       31.161864      69.482074    
     54800   239.57436      0.2192         0.33444708    -9515.7788     -4993.7366      31.07215       31.161864      69.504877    
     54900   242.6426       0.2196         0.39661421    -9353.2418     -5366.882       31.07215       31.161864      69.527681    
     55000   241.90515      0.22           0.49561729    -9911.0845     -5638.2991      31.07215       31.161864      69.550484    
     55100   233.31816      0.2204         0.58208642    -10336.703     -6766.2879      31.07215       31.161864      69.573287    
     55200   238.09531      0.2208         0.62815271    -10379.59      -5933.1295      31.07215       31.161864      69.596091    
     55300   244.77809      0.2212         0.57509863    -9814.8809     -5681.279       31.07215       31.161864      69.618894    
     55400   235.62042      0.2216         0.5086435     -9816.4756     -5853.9497      31.07215       31.161864      69.641698    
     55500   240.64472      0.222          0.46184868    -9893.9694     -5542.8812      31.07215       31.161864      69.664501    
     55600   239.8905       0.2224         0.21403465    -8612.6339     -4643.2504      31.07215       31.161864      69.687305    
     55700   239.86636      0.2228         0.16509399    -8261.6848     -4445.9102      31.07215       31.161864      69.710108    
     55800   239.67843      0.2232         0.18469064    -8777.4069     -4231.0139      31.07215       31.161864      69.732911    
     55900   240.71666      0.2236         0.12248459    -8564.9732     -4160.4288      31.07215       31.161864      69.755715    
Fix halt condition for fix-id halt_frac met on step 56000 with value 1
     56000   234.03052      0.224          0.081308738   -8701.6816     -3530.5248      31.07215       31.161864      69.778518    
Loop time of 149.936 on 4 procs for 56000 steps with 4335 atoms

Performance: 64.539 ns/day, 0.372 hours/ns, 373.492 timesteps/s, 1.619 Matom-step/s
103.4% CPU use with 4 MPI tasks x 1 OpenMP threads

MPI task timing breakdown:
Section |  min time  |  avg time  |  max time  |%varavg| %total
---------------------------------------------------------------
Pair    | 91.984     | 114.96     | 139.61     | 197.8 | 76.68
Neigh   | 0.81467    | 1.4185     | 2.2037     |  51.2 |  0.95
Comm    | 3.6893     | 26.855     | 52.808     | 385.8 | 17.91
Output  | 1.7394     | 2.1507     | 2.5529     |  20.2 |  1.43
Modify  | 1.3644     | 3.8409     | 10.996     | 210.8 |  2.56
Other   |            | 0.7075     |            |       |  0.47

Nlocal:        1083.75 ave        1512 max         613 min
Histogram: 1 0 1 0 0 0 0 0 1 1
Nghost:         3128.5 ave        4747 max        1286 min
Histogram: 1 0 0 1 0 0 0 1 0 1
Neighs:          96145 ave      167767 max       34835 min
Histogram: 1 1 0 0 0 0 0 1 0 1

Total # of neighbors = 384580
Ave neighs/atom = 88.71511
Neighbor list builds = 905
Dangerous builds = 0
Total wall time: 0:03:13
5329.5785      31.07215       31.161864      69.39086     
     54400   240.76643      0.2176         0.31702966    -9517.6887     -4962.9946      31.07215       31.161864      69.413663    
     54500   239.73968      0.218          0.23672858    -9086.4151     -4926.8348      31.07215       31.161864      69.436467    
     54600   244.60208      0.2184         0.14990318    -8418.1083     -4286.0981      31.07215       31.161864      69.45927     
     54700   240.60418      0.2188         0.25335914    -8824.4676     -4344.1737      31.07215       31.161864      69.482074    
     54800   239.57436      0.2192         0.33444708    -9515.7788     -4993.7366      31.07215       31.161864      69.504877    
     54900   242.6426       0.2196         0.39661421    -9353.2418     -5366.882       31.07215       31.161864      69.527681    
     55000   241.90515      0.22           0.49561729    -9911.0845     -5638.2991      31.07215       31.161864      69.550484    
     55100   233.31816      0.2204         0.58208642    -10336.703     -6766.2879      31.07215       31.161864      69.573287    
     55200   238.09531      0.2208         0.62815271    -10379.59      -5933.1295      31.07215       31.161864      69.596091    
     55300   244.77809      0.2212         0.57509863    -9814.8809     -5681.279       31.07215       31.161864      69.618894    
     55400   235.62042      0.2216         0.5086435     -9816.4756     -5853.9497      31.07215       31.161864      69.641698    
     55500   240.64472      0.222          0.46184868    -9893.9694     -5542.8812      31.07215       31.161864      69.664501    
     55600   239.8905       0.2224         0.21403465    -8612.6339     -4643.2504      31.07215       31.161864      69.687305    
     55700   239.86636      0.2228         0.16509399    -8261.6848     -4445.9102      31.07215       31.161864      69.710108    
     55800   239.67843      0.2232         0.18469064    -8777.4069     -4231.0139      31.07215       31.161864      69.732911    
     55900   240.71666      0.2236         0.12248459    -8564.9732     -4160.4288      31.07215       31.161864      69.755715    
Fix halt condition for fix-id halt_frac met on step 56000 with value 1
     56000   234.03052      0.224          0.081308738   -8701.6816     -3530.5248      31.07215       31.161864      69.778518    
Loop time of 149.936 on 4 procs for 56000 steps with 4335 atoms

Performance: 64.539 ns/day, 0.372 hours/ns, 373.492 timesteps/s, 1.619 Matom-step/s
103.4% CPU use with 4 MPI tasks x 1 OpenMP threads

MPI task timing breakdown:
Section |  min time  |  avg time  |  max time  |%varavg| %total
---------------------------------------------------------------
Pair    | 91.984     | 114.96     | 139.61     | 197.8 | 76.68
Neigh   | 0.81467    | 1.4185     | 2.2037     |  51.2 |  0.95
Comm    | 3.6893     | 26.855     | 52.808     | 385.8 | 17.91
Output  | 1.7394     | 2.1507     | 2.5529     |  20.2 |  1.43
Modify  | 1.3644     | 3.8409     | 10.996     | 210.8 |  2.56
Other   |            | 0.7075     |            |       |  0.47

Nlocal:        1083.75 ave        1512 max         613 min
Histogram: 1 0 1 0 0 0 0 0 1 1
Nghost:         3128.5 ave        4747 max        1286 min
Histogram: 1 0 0 1 0 0 0 1 0 1
Neighs:          96145 ave      167767 max       34835 min
Histogram: 1 1 0 0 0 0 0 1 0 1

Total # of neighbors = 384580
Ave neighs/atom = 88.71511
Neighbor list builds = 905
Dangerous builds = 0
Total wall time: 0:03:13
