LAMMPS (11 Feb 2026 - Development - d97c5bd)
OMP_NUM_THREADS environment is not set. Defaulting to 1 thread.
  using 1 OpenMP thread(s) per MPI task
package gpu 1
units metal
boundary p p p
atom_style atomic
timestep 0.002
read_data data.crystal
Reading data file ...
  orthogonal box = (0 0 0) to (79.53 79.53 79.53)
  1 by 1 by 1 MPI processor grid
  reading atoms ...
  42592 atoms
  read_data CPU = 0.131 seconds

pair_style eam/alloy
pair_coeff * * Cu_zhou.eam.alloy Cu
Reading eam/alloy potential file Cu_zhou.eam.alloy with DATE: 2007-10-12

neighbor 2.0 bin
neigh_modify delay 10 check yes

thermo 100
thermo_style custom step temp pe press pxx pyy pzz lx ly lz

print '=== Phase 1: 0K Relaxation ==='
=== Phase 1: 0K Relaxation ===
fix relax all box/relax aniso 0.0 vmax 0.001
minimize 1.0e-8 1.0e-10 10000 100000

CITE-CITE-CITE-CITE-CITE-CITE-CITE-CITE-CITE-CITE-CITE-CITE-CITE

Your simulation uses code contributions which should be cited:

- GPU package (short-range, long-range and three-body potentials): https://doi.org/10.1016/j.cpc.2010.12.021, https://doi.org/10.1016/j.cpc.2011.10.012, https://doi.org/10.1016/j.cpc.2013.08.002, https://doi.org/10.1016/j.commatsci.2014.10.068, https://doi.org/10.1016/j.cpc.2016.10.020, https://doi.org/10.3233/APC200086

@Article{Brown11,
 author = {W. M. Brown and P. Wang and S. J. Plimpton and A. N. Tharrington},
 title = {Implementing Molecular Dynamics on Hybrid High Performance Computers---Short Range Forces},
 journal = {Comput.\ Phys.\ Commun.},
 year =    2011,
 volume =  182,
 pages =   {898--911},
 doi =     {10.1016/j.cpc.2010.12.021}
}

@Article{Brown12,
 aDone.

Setting up cg style minimization ...
  Unit style    : metal
  Current step  : 0
WARNING: Energy due to 3 extra global DOFs will be included in minimizer energies
 (src/min.cpp:222)
Per MPI rank memory allocation (min/avg/max) = 23.99 | 23.99 | 23.99 Mbytes
   Step          Temp          PotEng         Press           Pxx            Pyy            Pzz             Lx             Ly             Lz      
         0   0             -150767.31     -214.0568      -214.05668     -214.05672     -214.057        79.53          79.53          79.53        
         3   0             -150767.32      10.446212      10.446748      10.44685       10.445037      79.525691      79.525691      79.525691    
Loop time of 0.279279 on 1 procs for 3 steps with 42592 atoms

100.0% CPU use with 1 MPI tasks x 1 OpenMP threads

Minimization stats:
  Stopping criterion = linesearch alpha is zero
  Energy initial, next-to-last, final = 
     -150767.309559391  -150767.318144682  -150767.318144682
  Force two-norm initial, final = 116.40516 5.6800879
  Force max component initial, final = 67.206617 3.2796001
  Final line search alpha, max atom move = 2.9078982e-10 9.5367432e-10
  Iterations, force evaluations = 3 46

MPI task timing breakdown:
Section |  min time  |  avg time  |  max time  |%varavg| %total
---------------------------------------------------------------
Pair    | 0.19471    | 0.19471    | 0.19471    |   0.0 | 69.72
Neigh   | 0          | 0          | 0          |   0.0 |  0.00
Comm    | 0.009374   | 0.009374   | 0.009374   |   0.0 |  3.36
Output  | 0          | 0          | 0          |   0.0 |  0.00
Modify  | 9.04e-06   | 9.04e-06   | 9.04e-06   |   0.0 |  0.00
Other   |            | 0.07519    |            |       | 26.92

Nlocal:          42592 ave       42592 max       42592 min
Histogram: 1 0 0 0 0 0 0 0 0 0
Nghost:          50005 ave       50005 max       50005 min
Histogram: 1 0 0 0 0 0 0 0 0 0
Neighs:              0 ave           0 max           0 min
Histogram: 1 0 0 0 0 0 0 0 0 0

Total # of neighbors = 0
Ave neighs/atom = 0
Neighbor list builds = 0
Dangerous builds = 0
=== Phase 2: Equilibration at 300.0K ===


---------------------------------------------------------------------
      Device Time Info (average): 
---------------------------------------------------------------------
Data Transfer:   0.0146 s.
Neighbor copy:   0.0000 s.
Neighbor build:  0.0018 s.
Force calc:      0.1581 s.
Device Overhead: 0.0012 s.
CPU Neighbor:    0.0011 s.
CPU Cast/Pack:   0.0249 s.
CPU Driver_Time: 0.0011 s.
CPU Idle_Time:   0.1471 s.
Average split:   1.0000.
Max Mem / Proc:  164.21 MB.
Prefetch mode:   None.
Vector width:    32.
Lanes / atom:    4.
Pair block:      256.
Neigh block:     128.
Neigh mode:      Hybrid (binning on host) with subgroup support.
Neigh sorting:   Unavailable or disabled.
---------------------------------------------------------------------


--------------------------------------------------------------------------
- Using acceleration for eam/alloy:
-  with 1 proc(s) per device.
-  with 1 thread(s) per proc.
-  Horizontal vector operations: ENABLED
-  Shared memory system: No
--------------------------------------------------------------------------
Device 0: NVIDIA RTX A4000, 48 CUs, 15/16 GB, 1.6 GHZ (Mixed Precision)
--------------------------------------------------------------------------

Initializing Device and compiling on process 0...Done.
Initializing Device 0 on core 0...Done.

Setting up Verlet run ...
  Unit style    : metal
  Current step  : 0
  Time step     : 0.002
Per MPI rank memory allocation (min/avg/max) = 18.43 | 18.43 | 18.43 Mbytes
   Step          Temp          PotEng         Press           Pxx            Pyy            Pzz             Lx             Ly             Lz      
         0   300           -150767.32      3517.8841      3508.3293      3528.0851      3517.2379      79.525691      79.525691      79.525691    
       100   142.90277     -149718.56      2657.7264      2616.1578      2672.7776      2684.2438      79.594819      79.591204      79.595331    
       200   185.47204     -149644.82      678.22167      640.17711      681.31582      713.17208      79.647918      79.645648      79.647635    
       300   226.12099     -149513.35     -91.501893     -55.147152     -127.16448     -92.194042      79.686944      79.679919      79.684719    
       400   258.37945     -149319.72     -280.37254     -277.68838     -315.5917      -247.83754      79.710559      79.720413      79.715457    
       500   285.5942      -149135.39     -342.68503     -411.14497     -408.02684     -208.88329      79.745446      79.750092      79.731363    
       600   308.75912     -149049.37     -458.04681     -406.28211     -399.75148     -568.10683      79.755986      79.757391      79.765301    
       700   302.23373     -149052.1      -230.92109     -319.98209     -333.22165     -39.559526      79.749204      79.765825      79.745471    
       800   293.67038     -149095.22     -56.984121     -46.379515      18.513616     -143.08646      79.743273      79.730444      79.755988    
       900   298.43813     -149048.78      53.084199      49.0375       -20.213138      130.42824      79.745204      79.761468      79.733094    
      1000   302.15079     -149032.15      163.73194      119.40941      222.95031      148.8361       79.741109      79.742976      79.761026    
      1100   295.34039     -149083.13      266.01647      296.09915      215.05988      286.89039      79.737311      79.739841      79.736854    
      1200   298.95349     -149076.82      369.1321       424.4491       257.51138      425.43581      79.738851      79.74852       79.729019    
      1300   304.44679     -149047.55      186.0778       249.96061      281.27583      26.99696       79.74428       79.731658      79.762496    
      1400   297.47108     -149071.63      170.94826      59.821578      66.998719      386.02447      79.762373      79.7569        79.70566     
      1500   298.21887     -149087.81     -39.927427      100.26029      57.692545     -277.73512      79.729509      79.731324      79.774039    
      1600   304.26255     -149056.84     -354.69192     -385.79314     -394.70902     -283.5736       79.776655      79.753022      79.737541    
      1700   298.89793     -149064.1      -465.79668     -435.73628     -646.68437     -314.96938      79.76001       79.773364      79.735764    
      1800   296.42078     -149083.64     -653.20852     -483.09893     -439.43261     -1037.094       79.73353       79.722285      79.815573    
      1900   303.38965     -149055.43     -692.00903     -996.01489     -911.03765     -168.97454      79.812648      79.790788      79.686411    
      2000   299.90468     -149060.97     -496.45674     -203.13085     -498.08619     -788.15317      79.713526      79.755834      79.802127    
      2100   297.6543      -149082.99     -221.95779     -303.62844     -154.49839     -207.74654      79.768547      79.735433      79.744742    
      2200   300.90947     -149068.51     -34.760958     -42.812264     -259.19468      197.72407      79.750364      79.780187      79.712041    
      2300   302.79516     -149059.47      108.83729      218.72183      167.08258     -59.292528      79.728052      79.729256      79.780383    
      2400   298.45895     -149081.08      270.35664      134.18619      346.05427      330.82947      79.754716      79.744271      79.720125    
      2500   298.54308     -149072.57      402.48974      487.90008      449.63708      269.93205      79.721483      79.745441      79.748747    
Loop time of 12.4947 on 1 procs for 2500 steps with 42592 atoms

Performance: 34.575 ns/day, 0.694 hours/ns, 200.085 timesteps/s, 8.522 Matom-step/s
99.9% CPU use with 1 MPI tasks x 1 OpenMP threads

MPI task timing breakdown:
Section |  min time  |  avg time  |  max time  |%varavg| %total
---------------------------------------------------------------
Pair    | 8.9818     | 8.9818     | 8.9818     |   0.0 | 71.89
Neigh   | 0          | 0          | 0          |   0.0 |  0.00
Comm    | 0.51111    | 0.51111    | 0.51111    |   0.0 |  4.09
Output  | 0.0087272  | 0.0087272  | 0.0087272  |   0.0 |  0.07
Modify  | 2.6508     | 2.6508     | 2.6508     |   0.0 | 21.22
Other   |            | 0.3422     |            |       |  2.74

Nlocal:          42592 ave       42592 max       42592 min
Histogram: 1 0 0 0 0 0 0 0 0 0
Nghost:          50005 ave       50005 max       50005 min
Histogram: 1 0 0 0 0 0 0 0 0 0
Neighs:              0 ave           0 max           0 min
Histogram: 1 0 0 0 0 0 0 0 0 0

Total # of neighbors = 0
Ave neighs/atom = 0
Neighbor list builds = 0
Dangerous builds = 0
=== Phase 3: Tension ===


---------------------------------------------------------------------
      Device Time Info (average): 
---------------------------------------------------------------------
Data Transfer:   0.7046 s.
Neighbor copy:   0.0000 s.
Neighbor build:  0.0018 s.
Force calc:      7.1482 s.
Device Overhead: 0.0466 s.
CPU Neighbor:    0.0008 s.
Cunfix eq

print '=== Phase 3: Tension ==='
=== Phase 3: Tension ===
reset_timestep 0

# 初期z寸法の記録
variable tmp equal lz
variable lz0 equal ${tmp}
variable lz0 equal 79.7487466170273
variable tmp delete

# z軸変形 + x,yゼロ圧力（Poisson収縮を許容）
fix deform_fix all deform 1 z erate 0.001 remap x
fix npt_fix all npt temp 300.0 300.0 0.1 x 0.0 0.0 1.0 y 0.0 0.0 1.0

# ひずみ・応力（sigma = -P [GPa]）
variable strain equal (lz-v_lz0)/v_lz0
variable stress equal -pzz/10000

# 欠陥解析用compute
# stress/atom: 単位は bar*Å³（実応力はボロノイ体積で割る必要あり）
compute peratom all stress/atom NULL
compute cna all cna/atom 3.087
compute csym all centro/atom fcc

thermo 100
thermo_style custom step temp v_strain v_stress pxx pyy pzz lx ly lz

fix out1 all print 100 "${strain} ${stress}" file stress_strain.txt screen no
dump 1 all custom 500 dump.lammpstrj id type x y z c_cna c_csym c_peratom[1] c_peratDone.

Neighbor list info ...
  update: every = 1 steps, delay = 10 steps, check = yes
  max neighbors/atom: 2000, page size: 100000
  master list distance cutoff = 11.0375
  ghost atom cutoff = 11.0375
  binsize = 5.51875, bins = 15 15 15
  2 neighbor lists, perpetual/occasional/extra = 0 2 0
  (1) compute cna/atom, occasional
      attributes: full, newton on
      pair build: full/bin/atomonly
      stencil: full/bin/3d
      bin: standard
  (2) compute centro/atom, occasional
      attributes: full, newton on
      pair build: full/bin/atomonly
      stencil: full/bin/3d
      bin: standard
Setting up Verlet run ...
  Unit style    : metal
  Current step  : 0
  Time step     : 0.002
Per MPI rank memory allocation (min/avg/max) = 27.42 | 27.42 | 27.42 Mbytes
   Step          Temp         v_strain       v_stress         Pxx            Pyy            Pzz             Lx             Ly             Lz      
         0   298.54308      1.7819534e-16 -0.026993144    487.90013      449.63731      269.93144      79.721483      79.745441      79.748747    
       100   300.2458       0.0002        -0.011303127    275.07039      412.2836       113.03127      79.734342      79.727242      79.764696    
       200   302.06478      0.0004         0.023161389    253.01314      297.92391     -231.61389      79.734964      79.7197        79.780646    
       300   301.75883      0.0006         0.052446754    64.916807      24.243684     -524.46754      79.709067      79.74262       79.796596    
       400   300.90975      0.0008         0.080612545   -248.92568      73.862326     -806.12545      79.741406      79.708838      79.812546    
       500   299.47079      0.001          0.094978777   -260.54606     -328.80928     -949.78777      79.712343      79.732664      79.828495    
       600   298.68688      0.0012         0.11869327    -230.55303     -248.92542     -1186.9327      79.711037      79.720991      79.844445    
       700   298.48683      0.0014         0.13531124    -408.10292     -147.36253     -1353.1124      79.721875      79.690932      79.860395    
       800   300.4744       0.0016         0.14380833     64.503993     -402.72891     -1438.0833      79.655285      79.744554      79.876345    
       900   299.11745      0.0018         0.12109758    -165.28083      414.48234     -1210.9758      79.723105      79.64669       79.892294    
      1000   299.84773      0.002          0.11869632     462.64679      294.79492     -1186.9632      79.654232      79.687835      79.908244    
      1100   300.17199      0.0022         0.13034691     593.39073      247.1115      -1303.4691      79.63753       79.686496      79.924194    
      1200   299.66328      0.0024         0.14511432     86.402569      648.45982     -1451.1432      79.699691      79.616304      79.940144    
      1300   301.16793      0.0026         0.18997872     441.55058     -137.93651     -1899.7872      79.614396      79.704435      79.956093    
      1400   300.88027      0.0028         0.22584622    -380.22195      31.633555     -2258.4622      79.689126      79.628594      79.972043    
   -380.22195      31.633555     -2258.4622      79.689126      79.628594      79.972043    
      1500   301.45248      0.003          0.2497693     -358.03574     -331.59432     -2497.693       79.653965      79.668191      79.987993    
      1600   301.26152      0.0032         0.28508206    -198.42632     -580.55445     -2850.8206      79.631141      79.679454      80.003943    
      1700   300.36779      0.0034         0.29553119    -650.64746     -74.227121     -2955.3119      79.682783      79.612062      80.019892    
      1800   300.07735      0.0036         0.29461364     91.805227     -338.25625     -2946.1364      79.599246      79.675711      80.035842    
      1900   300.96817      0.0038         0.29208095    -188.70053      119.03531     -2920.8095      79.643322      79.608806      80.051792    
      2000   298.82992      0.004          0.30064562     69.898414      183.8745      -3006.4562      79.61259       79.615557      80.067742  45.5753      79.582204      79.634064      80.083691    
      2200   300.00681      0.0044         0.3186549      112.68753      543.66854     -3186.549       79.621135      79.577609      80.099641    
      2300   299.5044       0.0046         0.33267782     412.96385     -4.1369232     -3326.7782      79.564925      79.620989      80.115591    
      2400   300.24783      0.0048         0.37476712    -97.473477      180.2476      -3747.6712      79.608744      79.579267      80.131541    
      2500   299.24767      0.005          0.40282223    -196.60873     -29.029754     -4028.2223      79.597944      79.580135      80.14749     
      2600   300.75742      0.0052         0.42765944    -213.17419     -506.68946     -4276.5944      79.564318      79.614025      80.16344     
      2700   300.25055      0.0054         0.44311928    -487.49255     -153.80862     -4431.1928      79.61472       79.554242      80.17939     
      2800   298.96688      0.0056         0.45909068    -103.77434     -529.269       -4590.9068      79.54333       79.608972      80.19534     
      2900   299.6512       0.0058         0.4646292     -326.75768     -9.6339027     -4646.292       79.591645      79.54373       80.211289    
      3000   300.67403      0.006          0.44997562    -91.934324      240.70286     -4499.7562      79.566183      79.541019      80.227239    
      3100   298.93045      0.0062         0.44782469     857.32677      115.21725     -4478.2469      79.473851      79.594865      80.243189    
      3200   300.25061      0.0064         0.44115236     169.7211       1146.0027     -4411.5236      79.596522      79.451284      80.259139    
      3300   301.18057      0.0066         0.47567841     867.16617      266.15032     -4756.7841      79.475726      79.56813       80.275088    
      3400   300.53093      0.0068         0.51634175     76.641421      153.49172     -5163.4175      79.534971      79.515515      80.291038    
      3500   299.54377      0.007          0.55812591    -219.16374     -35.576766     -5581.2591      79.553229      79.500389      80.306988    
      3600   301.22851      0.0072         0.59443449    -28.502659     -600.30426     -5944.3449      79.492719      79.564239      80.322938    
      3700   299.95518      0.0074         0.61077556    -617.43679     -275.96165     -6107.7556      79.554432      79.49219       80.338887    
      3800   301.13585      0.0076         0.62753315    -383.49687     -292.27641     -6275.3315      79.510991      79.518709      80.354837    
      3900   299.73417      0.0078         0.61405015     98.595667     -230.62908     -6140.5015      79.488356      79.516672      80.370787    
      4000   298.08751      0.008          0.61726652     20.478348      490.10727     -6172.6652      79.510106      79.459598      80.386737    
      4100   300.94004      0.0082         0.62431874     517.25773      294.16507     -6243.1874      79.44923       79.500331      80.402686    
      4200   299.95464      0.0084         0.61917268     423.65954      574.814       -6191.7268      79.482086      79.450085         0.61917268     423.65954      574.814       -6191.7268      79.482086      79.450085      80.418636    
      4300   299.98313      0.0086         0.64885886     381.06701      391.78468     -6488.5886      79.466207      79.458169      80.434586    
      4400   297.46852      0.0088         0.69075096     285.33145      91.062203     -6907.5096      79.44282       79.480078      80.450536    
      4500   300.40356      0.009          0.72629826    -310.76232     -12.641535     -7262.9826      79.495098      79.43782       80.466485    
      4600   299.71095      0.0092         0.75555824    -273.39018     -402.62709     -7555.5824      79.451768      79.481653      80.482435    
      4700   298.60715      0.0094         0.77263286    -327.61859     -493.54322     -7726.3286      79.447802      79.472403      80.498385    
      4800   301.15994      0.0096         0.776522      -634.68792     -269.02148     -7765.22        79.474113      79.428  -187.33262     -7745.4393      79.408233      79.466829      80.530284    
      5000   300.12622      0.01           0.76495316     227.96022      469.02273     -7649.5316      79.434371      79.405345      80.546234    
      5100   299.53169      0.0102         0.7635377      412.63063      663.87539     -7635.377       79.414119      79.398045      80.562184    
      5200   301.04469      0.0104         0.7728094      805.47903      365.2541      -7728.094       79.367181      79.436245      80.578134    
      5300   299.95605      0.0106         0.81329049     211.81443      542.67545     -8132.9049      79.427258      79.373729      80.594083    
      5400   298.29181      0.0108         0.85058965     203.72679     -150.68362     -8505.8965      79.373881      79.432183      80.610033    
      5500   301.39977      0.011          0.90011068    -383.81738     -415.39364     -9001.1068      79.399337      79.418922      80.625983    
      5600   298.91666      0.0112         0.92479272    -723.13007     -255.2067      -9247.9272      79.431542      79.382192      80.641933    
      5700   299.04426      0.0114         0.93260436    -205.99376     -608.80634     -9326.0436      79.349495      79.438347      80.657882    
      5800   299.26393      0.0116         0.93246993    -284.74582     -45.300531     -9324.6993      79.40753       79.361236      80.673832    
      5900   301.24692      0.0118         0.93341952     110.92313      105.75355     -9334.1952      79.369078      79.373675      80.689782    
      6000   299.1194       0.012          0.9278639      389.12967      122.03567     -9278.639       79.337027      79.381631      80.705732    
      6100   299.23642      0.0122         0.94570183     67.866457      345.79003     -9457.0183      79.375711      79.332622      80.721681    
      6200   299.91318      0.0124         0.96990581     193.17903     -76.770359     -9699.0581      79.33379       79.37268       80.737631    
      6300   300.29844      0.0126         0.99865078    -99.115618     -77.929741     -9986.5078      79.351054      79.348933      80.753581    
      6400   297.06866      0.0128         1.0282506     -206.1509      -24.074599     -10282.506      79.356678      79.331449      80.769531    
      6500   297.68226      0.013          1.0459481     -38.527515     -384.00368     -10459.481      79.322286      79.358514      80.78548     
      6600   299.75267      0.0132         1.0517693     -266.88665     -11.242197     -10517.693      79.351695      79.315963      80.80143     
      6700   300.37472      0.0134         1.0549047      56.389948     -73.56997      -10549.047      79.320041      79.328944      80.81738     
      6800   298.39504      0.0136         1.0693797      208.1783       8.7742079     -10693.797      79.301556      79.323716      80.83333     
      6900   300.1424       0.0138         1.0832049     -143.0961       223.35223     -10832.049      79.341859      79.276197      80.849279    
      7000   299.51511      0.014          1.10116        125.94112     -197.70566     -11011.6        79.299.51511      0.014          1.10116        125.94112     -197.70566     -11011.6        79.283406      79.327683      80.865229    
      7100   298.58339      0.0142         1.1439615     -196.92193     -6.8874249     -11439.615      79.315176      79.282134      80.881179    
      7200   298.90432      0.0144         1.162559      -415.64928     -194.8502      -11625.59       79.318718      79.282429      80.897129    
      7300   299.935        0.0146         1.2047865     -188.92363     -741.47819     -12047.865      79.26525       79.338985      80.913078    
      7400   300.36798      0.0148         1.208096      -619.55222     -141.00549     -12080.96       79.328189      79.25847       80.929028    
      7500   300.19476      0.015          1.2088005     -52.1346       -160.70866     -12088.005      79.2602        79.291275      80.944978    
      7600   299.89074      0.0152         1.1802055      486.67351      124.80413     -11802.055      714      259.73771      789.18622     -11868.814      79.291086      79.202087      80.976877    
      7800   299.25962      0.0156         1.1979958      811.53807      465.09335     -11979.958      79.202798      79.269008      80.992827    
      7900   301.72294      0.0158         1.2376286      210.55901      380.57498     -12376.286      79.248349      79.236154      81.008777    
      8000   301.41955      0.016          1.2761707     -101.12449      169.58349     -12761.707      79.263983      79.219044      81.024727    
      8100   300.60763      0.0162         1.3075242      19.257467     -406.35052     -13075.242      79.210388      79.273922      81.040676    
      8200   299.98435      0.0164         1.3314294     -559.5627      -191.58682     -13314.294      79.272199      79.212242      81.056626    
      8300   298.59786      0.0166         1.3388905     -265.38874     -366.36528     -13388.905      79.223736      79.243146      81.072576    
      8400   298.88863      0.0168         1.3604026     -166.84232     -432.00555     -13604.026      79.202628      79.250355      81.088526    
      8500   301.44619      0.017          1.3600767     -388.95605      32.741817     -13600.767      79.250028      79.183319      81.104475    
      8600   301.93029      0.0172         1.3758909      45.457829     -271.5999      -13758.909      79.181511      79.242409      81.120425    
      8700   300.77826      0.0174         1.3962257      49.820773      31.813511     -13962.257      79.198478      79.199665      81.136375    
      8800   298.35297      0.0176         1.3872429      127.77637      379.06189     -13872.429      79.190911      79.182133      81.152325    
      8900   300.41978      0.0178         1.403184       372.39606      101.07936     -14031.84       79.143575      79.222565      81.168274    
      9000   298.4749       0.018          1.4291316     -36.144472      426.21217     -14291.316      79.207646      79.147463      81.184224    
      9100   300.07176      0.0182         1.4602635      222.48507     -104.74411     -14602.635      79.151392      79.198716      81.200174    
      9200   300.09028      0.0184         1.4928634     -151.91932     -360.23231     -14928.634      79.154978      79.199917      81.216124    
      9300   301.37735      0.0186         1.5159956     -748.63353      48.101256     -15159.956      79.236206      79.118308      81.232073    
      9400   299.58322      0.0188         1.5260092      167.29003     -706.08726     -15260.092      79.08564       79.24355       81.248023    
      9500   300.29847      0.019          1.5173469     -4.1003396      163.766       -15173.469      79.166865      79.133713      81.263973    
      9600   302.46201      0.0192         1.5209875      41.457738      478.01267     -15209.875      79.17253       79.10912       81.279923    
      9700   300.35217      0.0194         1.5380588      951.75191     -88.522869     -15380.588      79.046401      79.212534      81.295872    
      9800   299.58525      0.0196         1.5480712     -12.23011       515.09944     2    
      9800   299.58525      0.0196         1.5480712     -12.23011       515.09944     -15480.712      79.17349       79.078092      81.311822    
      9900   300.10816      0.0198         1.5832901      50.649813      127.03592     -15832.901      79.11544       79.132321      81.327772    
     10000   300.78965      0.02           1.6102089      78.691624     -162.365       -16102.089      79.096352      79.148415      81.343722    
     10100   300.64208      0.0202         1.6362519     -350.04661     -58.749198     -16362.519      79.153281      79.088592      81.359671    
     10200   297.70774      0.0204         1.6577058     -57.586079     -246.96011     -16577.058      79.089728      79.136675      81.375621    
     10300   300.4143       0.0206         1.6710801     -274.39484     -179.8181      -16710.801      79.107554      79.109806      81.391571    
     10400   299.90332      0.0208         1.6748546     -294.68445      71.306553  021          1.7003153      170.72955     -200.60238     -17003.153      79.058075      79.123899      81.42347     
     10600   300.09856      0.0212         1.7027949      65.161375      162.13869     -17027.949      79.091097      79.074375      81.43942     
     10700   301.8572       0.0214         1.7075907      135.4598       400.85898     -17075.907      79.084864      79.058328      81.45537     
     10800   298.68416      0.0216         1.7020295      504.05806      144.50127     -17020.295      79.030784      79.094624      81.47132     
     10900   300.80568      0.0218         1.7446046      177.9207       369.56723     -17446.046      79.089613      79.028011      81.487269    
     11000   301.33882      0.022          1.7824463      68.36055      -100.58675     -17824.463      79.050694      79.074547      81.503219    
     11100   299.93756      0.0222         1.8161294     -158.21687     -385.56061     -18161.294      79.032319      79.097084      81.519169    
     11200   300.68216      0.0224         1.8528098     -672.91908     -177.78767     -18528.098      79.092372      79.029165      81.535119    
     11300   300.70823      0.0226         1.8637932     -279.6127      -680.59067     -18637.932      79.022277      79.095385      81.551068    
     11400   299.21767      0.0228         1.8513467     -157.33777     -271.81646     -18513.467      79.033019      79.054439      81.567018    
     11500   299.94175      0.023          1.8599585     -67.34347       461.60401     -18599.585      79.070103      78.980186      81.582968    
     11600   301.90008      0.0232         1.8458898      800.51383      266.54102     -18458.898      78.961271      79.059677      81.598918    
     11700   302.10604      0.0234         1.8503952      461.2948       847.7904      -18503.952      79.012962      78.99302       81.614867    
     11800   299.39989      0.0236         1.8860773      300.30671      479.92764     -18860.773      79.014956      78.990037      81.630817    
     11900   298.65981      0.0238         1.9347698      256.52765     -152.58786     -19347.698      78.954329      79.055852      81.646767    
     12000   301.37679      0.024          1.9592117     -304.02639     -79.449924     -19592.117      79.015097      78.999584      81.662717    
     12100   300.39888      0.0242         1.9946939     -223.53252     -287.11602     -19946.939      78.983274      79.022712      81.678666    
     12200   297.32911      0.0244         1.9976647     -105.2995      -261.30159     -19976.647      78.973338      79.014467      81.694616    
     12300   301.1686       0.0246         2.0125547     -149.23647     -122.57735     -20125.547      79.001135      78.972456      81.710566    
     12400   300.38304      0.0248         2.0102502     -5.5728606      53.536647     -20102.502      78.966354      78.986693      81.726516    
     12500   300.81566      0.025          2.0337565      158.30274      67.124303     -20337.565      78.956803      78.977751      81.742465    
     12600   300.37671      0.0252         2.0287637      151.19358977751      81.742465    
     12600   300.37671      0.0252         2.0287637      151.19358      327.15869     -20287.637      78.966723      78.95093       81.758415    
     12700   300.78607      0.0254         2.0472418      216.14478      145.87776     -20472.418      78.927534      78.980353      81.774365    
     12800   298.58923      0.0256         2.0773546      127.26749      126.20566     -20773.546      78.947545      78.949394      81.790315    
     12900   300.84187      0.0258         2.1176065     -220.06001     -84.231882     -21176.065      78.972231      78.932721      81.806264    
     13000   300.31839      0.026          2.1434118     -289.17887     -402.68581     -21434.118      78.930963      78.973361      81.822214    
     13100   297.46223      0.0262         2.1678677     -334.72212     -427.69764     -21678.677      78.947374      78.941382      81.838164    
     13200   298.58458      0.0264         2.1779158     -473.35   301.9141       0.0266         2.17437        91.11465      -330.18483     -21743.7        78.883847      78.967315      81.870063    
     13400   299.29721      0.0268         2.1655697      208.46137      330.98658     -21655.697      78.918649      78.897714      81.886013    
     13500   297.87945      0.027          2.1464059      644.83291      704.36101     -21464.059      78.901093      78.880629      81.901963    
     13600   299.19488      0.0272         2.1707477      920.55435      465.54538     -21707.477      78.842354      78.929603      81.917913    
     13700   301.00188      0.0274         2.2243821      52.208472      425.16359     -22243.821      78.924023      78.86154       81.933862    
     13800   299.05287      0.0276         2.2726953     -65.038728     -151.78243     -22726.953      78.878462      78.913893      81.949812    
     13900   300.86879      0.0278         2.3106949     -357.2459      -557.87034     -23106.949      78.874319      78.934382      81.965762    
     14000   299.19267      0.028          2.3153295     -590.02377     -323.05084     -23153.295      78.922205      78.867455      81.981712    
     14100   300.05274      0.0282         2.3281474     -229.07518     -350.62157     -23281.474      78.85667       78.905916      81.997661    
     14200   297.4934       0.0284         2.3255305      59.337063     -76.946251     -23255.305      78.855406      78.881018      82.013611    
     14300   301.70077      0.0286         2.3380577     -173.49233      98.016177     -23380.577      78.878687      78.848953      82.029561    
     14400   298.52429      0.0288         2.3318909      376.19164      71.553531     -23318.909      78.832003      78.871386      82.045511    
     14500   298.71994      0.029          2.3611019      70.351847      260.54811     -23611.019      78.847323      78.842234      82.06146     
     14600   299.87886      0.0292         2.3879148     -12.29251      -10.502388     -23879.148      78.850995      78.841232      82.07741     
     14700   300.24528      0.0294         2.4233055      126.63831     -200.16755     -24233.055      78.820879      78.865511      82.09336     
     14800   299.78676      0.0296         2.4503126     -291.03636     -192.05619     -24503.126      78.852398      78.830879      82.10931     
     14900   300.0102       0.0298         2.4669348     -297.04915     -316.42179     -24669.348      78.825555      78.848209      82.125259    
     15000   302.21004      0.03           2.4761174     -42.854478     -191.30444     -24761.174      78.821318      78.836566      82.141209    
     15100   299.3273       0.0302         2.4610749      85.74739       364.62243     -24610.749      78.823863      78.796396      82.157159    
     15200   299.33922      0.0304         2.4594336      552.43884      517.06715     -24594.336      78.773709      78.813586      82.173109    
     15300   301.32928      0.0306         2.4584673      543.76222      535.04529     -24584.673      78.791569      78.784939      82.189058    
     15400   300.64692      0.0308         2.50  78.791569      78.784939      82.189058    
     15400   300.64692      0.0308         2.5039275      493.33616      436.63823     -25039.275      78.796283      78.778445      82.205008    
     15500   298.06899      0.031          2.5443225      201.55376     -75.811776     -25443.225      78.772859      78.808309      82.220958    
     15600   298.87747      0.0312         2.6027193     -584.75384     -327.1305      -26027.193      78.828527      78.778857      82.236908    
     15700   300.43717      0.0314         2.6398529     -843.02284     -843.27379     -26398.529      78.802168      78.809235      82.252857    
     15800   297.72276      0.0316         2.6518931     -628.35401     -904.55022     -26518.931      78.780199      78.813907      82.268807    
     15900   298.61809      0.0318         2.635605      -636.24236     -338.39113     -26356.05       78.809697      78.755801      82.284757    
     16000   300.09136      0.032          200707    
     16100   298.05892      0.0322         2.6126801      538.07456      373.51414     -26126.801      78.739889      78.746549      82.316656    
     16200   300.28424      0.0324         2.6222761      519.49062      576.40245     -26222.761      78.765116      78.71281       82.332606    
     16300   301.35884      0.0326         2.6679187      308.61128      113.8617      -26679.187      78.740191      78.740541      82.348556    
     16400   299.06307      0.0328         2.7062051     -3.4004548     -45.383185     -27062.051      78.743914      78.739057      82.364506    
     16500   299.29696      0.033          2.7328485     -202.13513     -157.88273     -27328.485      78.749224      78.734825      82.380455    
     16600   299.12819      0.0332         2.7474177     -179.07368     -274.84633     -27474.177      78.727286      78.746408      82.396405    
     16700   299.55395      0.0334         2.7663868     -251.58631     -189.82479     -27663.868      78.730323      78.73217       82.412355    
     16800   298.70115      0.0336         2.782793      -107.09315     -176.15806     -27827.93       78.716192      78.724607      82.428305    
     16900   299.31873      0.0338         2.7731671      52.705639      109.00455     -27731.671      78.711624      78.71167       82.444254    
     17000   300.05361      0.034          2.7704799      341.19793      171.57588     -27704.799      78.691657      78.705113      82.460204    
     17100   298.8623       0.0342         2.7982177      371.42249      276.19459     -27982.177      78.678913      78.702206      82.476154    
     17200   301.24033      0.0344         2.8108513      216.41891      269.67672     -28108.513      78.691582      78.684262      82.492104    
     17300   299.11175      0.0346         2.8349713      151.24344     -2.7050582     -28349.713      78.677081      78.696069      82.508053    
     17400   298.60775      0.0348         2.8877416     -243.9473      -278.19729     -28877.416      78.690231      78.687331      82.524003    
     17500   297.40018      0.035          2.9327209     -701.75051     -524.99218     -29327.209      78.696036      78.696519      82.539953    
     17600   299.98623      0.0352         2.9489281     -676.47891     -895.58923     -29489.281      78.677932      78.707013      82.555902    
     17700   298.10754      0.0354         2.9452178     -560.55419     -353.51358     -29452.178      78.687596      78.665446      82.571852    
     17800   298.61474      0.0356         2.9194929      400.55574      299.95033     -29194.929      78.643845      78.654954      82.587802    
     17900   300.19818      0.0358         2.8782754      941.73262      1091.7831     -28782.754      78.617448      78.631063      82.603752    
     18000   300.81089      0.036          2.887767       1031.3509      1070.8868     -28877.67       78.616784      78.61621       82.619701    
     18100   298.69312      0.0362         2.9507993      627.80878      554.45272     -29507.993      78.611024      78.634831      82.635651    
     18200   299.93628     2     -29507.993      78.611024      78.634831      82.635651    
     18200   299.93628      0.0364         3.0129147     -94.286465     -6.3560113     -30129.147      78.637095      78.640967      82.651601    
     18300   301.07176      0.0366         3.0641557     -635.93746     -653.9622      -30641.557      78.637042      78.658641      82.667551    
     18400   298.38461      0.0368         3.0970325     -697.3861      -855.85225     -30970.325      78.635196      78.655321      82.6835      
     18500   298.34572      0.037          3.0896601     -749.33582     -398.76876     -30896.601      78.650155      78.621617      82.69945     
     18600   300.97507      0.0372         3.0885373     -89.467067     -162.7611      -30885.373      78.606162      78.627792      82.7154      
     18700   300.6046       0.0374         3.0753724      291.76193      277.68191     -30753.724      78.597893      78.60097       82.73135     
     18800   299.88041   78.57816       82.747299    
     18900   301.8501       0.0378         3.0892648      407.95728      289.51645     -30892.648      78.56807       78.599742      82.763249    
     19000   298.98805      0.038          3.1332192      81.161389      54.031842     -31332.192      78.573423      78.599706      82.779199    
     19100   298.8481       0.0382         3.1804139     -272.86333     -145.30704     -31804.139      78.596823      78.578743      82.795149    
     19200   298.68189      0.0384         3.202124      -459.2225      -404.78117     -32021.24       78.579395      78.602378      82.811098    
     19300   300.68639      0.0386         3.2352711     -471.70797     -609.46506     -32352.711      78.576026      78.600808      82.827048    
     19400   299.62309      0.0388         3.2476123     -479.94652     -402.2969      -32476.123      78.576684      78.578179      82.842998    
     19500   298.61573      0.039          3.2255885     -58.522822     -3.9425791     -32255.885      78.550681      78.571316      82.858948    
     19600   302.15089      0.0392         3.2222045      276.90562      224.44819     -32222.045      78.523299      78.573001      82.874897    
     19700   297.83168      0.0394         3.2083383      543.11231      747.2529      -32083.383      78.534471      78.526143      82.890847    
     19800   299.11324      0.0396         3.2486995      521.60459      592.43857     -32486.995      78.528672      78.522747      82.906797    
     19900   299.18326      0.0398         3.2748879      158.38842      154.2484      -32748.879      78.525734      78.542397      82.922747    
     20000   299.13867      0.04           3.3358113     -384.64551     -358.32162     -33358.113      78.540009      78.552441      82.938696    
     20100   298.64206      0.0402         3.3977739     -891.92249     -787.35722     -33977.739      78.548948      78.552654      82.954646    
     20200   301.01168      0.0404         3.4042866     -856.66596     -845.26628     -34042.866      78.539084      78.555202      82.970596    
     20300   299.44595      0.0406         3.3898557     -358.93844     -316.50845     -33898.557      78.525449      78.528282      82.986546    
     20400   297.88105      0.0408         3.355004       354.66809      237.10808     -33550.04       78.491071      78.509844      83.002495    
     20500   301.10683      0.041          3.3585213      495.4955       611.85089     -33585.213      78.485246      78.493078      83.018445    
     20600   299.75362      0.0412         3.3605577      732.26856      687.71295     -33605.577      78.468824      78.489083      83.034395    
     20700   298.7208       0.0414         3.4114492      450.54141      393.69638     -34114.492      78.478733      78.482861      83.050345    
     20800   299.94161      0.0416         3.4469492     -45.130279     -27.538222     -34469.492      78.498816      78.479562      83.066294    
     20900   301.11491      0.0418         3.4976286     -253.04625     -270.14393     -34976.286      78.491881      78.491232      83.082244    
     21.04625     -270.14393     -34976.286      78.491881      78.491232      83.082244    
     21000   299.67234      0.042          3.5138342     -426.72651     -377.82281     -35138.342      78.482941      78.493289      83.098194    
     21100   299.94541      0.0422         3.5210882     -216.47406     -196.70208     -35210.882      78.477405      78.477923      83.114144    
     21200   303.01976      0.0424         3.5141305     -85.922318     -70.633312     -35141.305      78.463113      78.475606      83.130093    
     21300   301.20781      0.0426         3.5258838      303.77605      131.10429     -35258.838      78.450976      78.457815      83.146043    
     21400   299.61065      0.0428         3.5254003      248.77434      474.05441     -35254.003      78.45047       78.433909      83.161993    
     21500   299.35539      0.043          3.5390571      514.31459      357.90786     -35390.571      78.431673      78.444328      83.177943    
          78.444581      78.435747      83.193892    
     21700   299.59784      0.0434         3.6128003     -195.1266      -147.23817     -36128.003      78.450376      78.431566      83.209842    
     21800   300.44094      0.0436         3.6464421     -341.99571     -433.03647     -36464.421      78.441189      78.444739      83.225792    
     21900   301.46933      0.0438         3.6748942     -630.61129     -653.40439     -36748.942      78.445662      78.447289      83.241742    
     22000   298.03664      0.044          3.6858072     -499.74749     -435.40304     -36858.072      78.435928      78.429663      83.257691    
     22100   300.37281      0.0442         3.6671503      149.64091     -58.48918      -36671.503      78.405316      78.42376       83.273641    
     22200   301.52111      0.0444         3.6167603      776.62518      893.9769      -36167.603      78.384474      78.38357       83.289591    
     22300   298.19356      0.0446         3.5987456      1311.5139      1401.2872     -35987.456      78.378345      78.34545       83.305541    
     22400   300.88764      0.0448         3.6491187      851.84875      827.31751     -36491.187      78.363221      78.377663      83.32149     
     22500   300.37336      0.045          3.7325863      151.36675     -0.16731066    -37325.863      78.385136      78.399341      83.33744     
     22600   300.06336      0.0452         3.7837053     -636.4657      -600.70299     -37837.053      78.413407      78.391635      83.35339     
     22700   297.81628      0.0454         3.8150647     -769.12745     -684.79692     -38150.647      78.401652      78.404402      83.36934     
     22800   300.98753      0.0456         3.8217129     -544.44753     -578.6831      -38217.129      78.390682      78.3902        83.385289    
     22900   301.84485      0.0458         3.8094406     -141.9794      -137.71634     -38094.406      78.392957      78.359484      83.401239    
     23000   298.99219      0.046          3.781204       362.29304      340.68504     -37812.04       78.352416      78.35868       83.417189    
     23100   299.56405      0.0462         3.7898438      685.92152      566.89187     -37898.438      78.334168      78.344757      83.433139    
     23200   299.26187      0.0464         3.806623       635.94704      683.47111     -38066.23       78.342614      78.327342      83.449088    
     23300   303.21854      0.0466         3.8387977      307.34547      289.95899     -38387.977      78.360838      78.317126      83.465038    
     23400   299.67463      0.0468         3.8896623      55.140822     -136.98046     -38896.623      78.345174      78.33797       83.480988    
     23500   298.81677      0.047          3.9295818     -440.71702     -351.73389     -39295.818      78.346239      78.351989      83.496938    
     23600   300.9772       0.0472         3.9568369     -673.82497     -625.61787     -39568.369      78.357289      78.343561      83.512887    
     23700   297.03189      0.0474         3.9564131     -465.25025     -375.06117     -39564.131      78.350651      78.322073      8  3.9564131     -465.25025     -375.06117     -39564.131      78.350651      78.322073      83.528837    
     23800   299.34088      0.0476         3.9469432     -29.037879      98.044578     -39469.432      78.331511      78.304291      83.544787    
     23900   300.8388       0.0478         3.9233837      556.23428      420.68392     -39233.837      78.295387      78.303766      83.560737    
     24000   298.37567      0.048          3.9393802      616.6475       650.7843      -39393.802      78.292669      78.291423      83.576686    
     24100   299.64683      0.0482         3.9687843      400.84798      429.99287     -39687.843      78.295962      78.283736      83.592636    
     24200   302.28918      0.0484         4.022679       153.83453     -16.24148      -40226.79       78.290953      78.306894      83.608586    
     24300   300.60755      0.0486         4.0562345     -233.12338     -260.61882     -40562.345      78.308158      78.29041     81007     -40832.343      78.308188      78.285916      83.640485    
     24500   301.46247      0.049          4.0940004     -470.28877     -458.98694     -40940.004      78.29622       78.295009      83.656435    
     24600   298.33112      0.0492         4.1049193     -341.42412     -224.09974     -41049.193      78.282823      78.287605      83.672385    
     24700   297.91388      0.0494         4.1070709     -60.627424     -278.34064     -41070.709      78.26381       78.286092      83.688335    
     24800   299.81332      0.0496         4.1050762      141.62656      197.33727     -41050.762      78.269837      78.248909      83.704284    
     24900   302.31479      0.0498         4.0891788      533.2531       541.11495     -40891.788      78.256795      78.229411      83.720234    
     25000   302.80392      0.05           4.099634       716.85957      542.35693     -40996.34       78.218925      78.252001      83.736184    
     25100   296.6009       0.0502         4.1397599      322.76516      443.36829     -41397.599      78.237201      78.238265      83.752134    
     25200   301.42369      0.0504         4.2030084     -331.03974     -198.76855     -42030.084      78.260251      78.240095      83.768083    
     25300   301.81841      0.0506         4.2352411     -700.27823     -895.98499     -42352.411      78.235479      78.285654      83.784033    
     25400   300.6852       0.0508         4.2729075     -804.57363     -1026.3204     -42729.075      78.246518      78.266986      83.799983    
     25500   297.82264      0.051          4.2607801     -718.83289     -405.77124     -42607.801      78.259229      78.223912      83.815933    
     25600   300.86554      0.0512         4.23894       -89.376079     -115.1431      -42389.4        78.216585      78.225358      83.831882    
     25700   301.0442       0.0514         4.2311426      580.56554      335.37655     -42311.426      78.211505      78.193832      83.847832    
     25800   297.88088      0.0516         4.2261995      561.51056      819.01163     -42261.995      78.217069      78.161164      83.863782    
     25900   299.96227      0.0518         4.2608782      634.84749      420.49761     -42608.782      78.174213      78.202219      83.879732    
     26000   301.38445      0.052          4.3183519      222.64768      90.407506     -43183.519      78.187116      78.204987      83.895681    
     26100   300.6055       0.0522         4.3388555     -181.69091     -123.12322     -43388.555      78.208591      78.191579      83.911631    
     26200   298.41708      0.0524         4.3630519     -201.8914      -402.90939     -43630.519      78.190525      78.199695      83.927581    
     26300   300.5972       0.0526         4.3785913     -143.16605     -233.01107     -43785.913      78.17671       78.201269      83.943531    
     26400   300.99877      0.0528         4.3820938     -70.369514     -27.634212     -43820.938      78.194068      78.164425      83.95948     
     26500   299.9115       0.053          4.3939768     -5.3392227      171.68051     -43939.768      78.200835         0.053          4.3939768     -5.3392227      171.68051     -43939.768      78.200835      78.138088      83.97543     
     26600   300.38556      0.0532         4.4050057      195.54807     -99.984286     -44050.057      78.13925       78.187285      83.99138     
     26700   300.87184      0.0534         4.4261167      54.04789      -69.023419     -44261.167      78.134809      78.194283      84.00733     
     26800   300.49775      0.0536         4.4528256     -90.277353      65.934627     -44528.256      78.182373      78.12719       84.023279    
     26900   301.58955      0.0538         4.4521048      284.35423      207.56171     -44521.048      78.149044      78.134978      84.039229    
     27000   301.40486      0.054          4.4335284      744.77611      204.47778     -44335.284      78.094959      78.171194      84.055179    
     27100   301.1814       0.0542         4.4760963      266.34371      604.68006     -44760.963      78.17454 77.542714      188.58688     -44977.914      78.152084      78.109964      84.087078    
     27300   302.58715      0.0546         4.5501814     -115.2316      -678.70821     -45501.814      78.074055      78.205854      84.103028    
     27400   298.75446      0.0548         4.5809086     -605.24052     -457.88158     -45809.086      78.155913      78.117477      84.118978    
     27500   298.6779       0.055          4.5835457     -726.22934     -101.18635     -45835.457      78.194507      78.06414       84.134928    
     27600   300.30523      0.0552         4.5686273      298.75553     -229.02023     -45686.273      78.063753      78.16175       84.150877    
     27700   299.58981      0.0554         4.5717471      387.86719      250.6179      -45717.471      78.081149      78.115809      84.166827    
     27800   298.84541      0.0556         4.5788375      264.28499      622.18944     -45788.375      78.140613      78.038338      84.182777    
     27900   300.441        0.0558         4.5995884      270.25534      268.86916     -45995.884      78.082798      78.093941      84.198727    
     28000   298.13092      0.056          4.6257963      174.88781     -85.742986     -46257.963      78.064652      78.112964      84.214676    
     28100   299.37383      0.0562         4.6795582     -437.55202     -39.9589       -46795.582      78.123067      78.054827      84.230626    
     28200   299.3654       0.0564         4.6908758     -337.88888     -261.3543      -46908.758      78.094469      78.086141      84.246576    
     28300   301.0417       0.0566         4.7081613     -225.72011     -337.67623     -47081.613      78.065546      78.102039      84.262526    
     28400   297.84781      0.0568         4.7071983     -37.237891     -65.882933     -47071.983      78.083415      78.054591      84.278475    
     28500   299.60642      0.057          4.7100617      82.621015      32.1737       -47100.617      78.078016      78.043056      84.294425    
     28600   301.75335      0.0572         4.7202491      309.43602      212.68417     -47202.491      78.034822      78.067322      84.310375    
     28700   298.05656      0.0574         4.7281859      322.13525      250.6426      -47281.859      78.037636      78.047516      84.326325    
     28800   299.45884      0.0576         4.7684204     -27.915452      57.832995     -47684.204      78.070211      78.024111      84.342274    
     28900   300.91509      0.0578         4.7929586     -112.27535     -210.44839     -47929.586      78.044559      78.049855      84.358224    
     29000   298.53951      0.058          4.806806      -211.77516     -249.69498     -48068.06       78.027078      78.060622      84.374174    
     29100   301.49339      0.0582         4.8375869     -271.50377      18.134962     -48375.869      78.068252      77.997485      84.390124    
     29200   298.94753      0.0584         4.8026545      350.04762      555.46803     -48026.545      78.036021      77.994913      84.406073    
     29300   300.48068      0.0586         4.8045319      860.3328       346.89653     -48045.    29300   300.48068      0.0586         4.8045319      860.3328       346.89653     -48045.319      77.946487      78.05643       84.422023    
     29400   297.48057      0.0588         4.8402213      398.48043      524.81034     -48402.213      78.020482      77.981689      84.437973    
     29500   299.17918      0.059          4.8775575     -122.18513      287.34845     -48775.575      78.071009      77.951461      84.453923    
     29600   298.65739      0.0592         4.9258367     -162.70973     -541.88287     -49258.367      77.972765      78.061191      84.469872    
     29700   299.93998      0.0594         4.9513827     -508.35514     -671.8088      -49513.827      77.993876      78.04116       84.485822    
     29800   299.60865      0.0596         4.9330604     -629.37581     -226.05429     -49330.604      78.056854      77.959318      84.501772    
     29900   299.57078      0.0598         4.9593705     -123.59614     -74.247756     -495      4.9468156      421.96211      117.99538     -49468.156      77.936243      78.020685      84.533671    
     30100   300.43063      0.0602         4.953179       274.80275      547.42784     -49531.79       78.012305      77.929392      84.549621    
     30200   299.62592      0.0604         4.9780512      99.814075      269.2616      -49780.512      77.993199      77.944262      84.565571    
     30300   298.81901      0.0606         5.0197064      310.32951     -213.53626     -50197.064      77.917223      78.02436       84.581521    
     30400   301.9666       0.0608         5.0296539     -218.73344     -50.469211     -50296.539      77.988866      77.955956      84.59747     
     30500   300.57969      0.061          5.0476334     -246.07506      199.10642     -50476.334      78.009995      77.909475      84.61342     
     30600   299.26628      0.0612         5.0405571      267.68921      184.72746     -50405.571      77.919214      77.975883      84.62937     
     30700   302.02312      0.0614         5.0555282      382.6137       52.629833     -50555.282      77.907299      77.982262      84.64532     
     30800   301.18452      0.0616         5.0687604      25.247136      315.28344     -50687.604      77.970053      77.906753      84.661269    
     30900   298.95646      0.0618         5.0919854      125.1772       56.986953     -50919.854      77.944123      77.922747      84.677219    
     31000   301.06978      0.062          5.1285936      82.211859     -258.21781     -51285.936      77.897954      77.970324      84.693169    
     31100   300.42112      0.0622         5.1429344     -240.85351     -185.67387     -51429.344      77.945785      77.925487      84.709119    
     31200   296.72189      0.0624         5.1552257     -286.43082      71.459229     -51552.257      77.971623      77.88127       84.725068    
     31300   300.93709      0.0626         5.1726422     -75.946547     -205.52137     -51726.422      77.907822      77.929894      84.741018    
     31400   300.01203      0.0628         5.1610551      192.45962     -31.848361     -51610.551      77.891735      77.925219      84.756968    
     31500   299.14248      0.063          5.1655875     -34.198352      379.83374     -51655.875      77.958725      77.838838      84.772918    
     31600   297.93389      0.0632         5.1946481      384.64359      253.42869     -51946.481      77.882749      77.89957       84.788867    
     31700   300.41247      0.0634         5.2110039      332.57749     -125.65356     -52110.039      77.819563      77.966628      84.804817    
     31800   299.67586      0.0636         5.2579055     -411.10618     -137.10642     -52579.055      77.938125      77.861482      84.820767    
     31900   297.32258      0.0638         5.2922841     -612.15699     -64.814332     -52922.841      77.961324      77.831243      84.836717    
     32000   300.44981      0.064          5.3069154     -78.824252     -618.41838     -53069.154      77.815449      77.962638      84.852666    
     32100   299.22999      0.0642         5.2801855      151.64429     -1     84.852666    
     32100   299.22999      0.0642         5.2801855      151.64429     -135.6819      -52801.855      77.848783      77.901684      84.868616    
     32200   300.78289      0.0644         5.2682241      158.47006      560.95366     -52682.241      77.926635      77.792182      84.884566    
     32300   297.91413      0.0646         5.2977135      522.25179      479.78932     -52977.135      77.851203      77.850313      84.900516    
     32400   300.71457      0.0648         5.3130182      421.82688     -32.434806     -53130.182      77.814572      77.893068      84.916465    
     32500   300.91836      0.065          5.3504078     -47.849572      11.429557     -53504.078      77.886663      77.82677       84.932415    
     32600   299.56957      0.0652         5.3707353     -108.48937      143.77539     -53707.353      77.869365      77.824797      84.948365    
     32700   299.40371      0.0654         5.3747796      152.91272    37648      0.0656         5.3829567     -237.60962      14.630889     -53829.567      77.866764      77.820572      84.980264    
     32900   300.53683      0.0658         5.4209331     -405.01615     -227.37352     -54209.331      77.866827      77.812623      84.996214    
     33000   296.25346      0.066          5.4325717     -14.896309     -349.90641     -54325.717      77.779743      77.880383      85.012164    
     33100   299.98335      0.0662         5.4383207     -270.80531     -202.3892      -54383.207      77.819044      77.837735      85.028114    
     33200   298.93336      0.0664         5.4548737     -343.9045      -93.929551     -54548.737      77.857522      77.789675      85.044063    
     33300   299.19285      0.0666         5.4644813      35.620255     -120.46511     -54644.813      77.779655      77.838665      85.060013    
     33400   300.83198      0.0668         5.4816155      189.38113     -116.60513     -54816.155      77.758504      77.847911      85.075963    
     33500   300.02125      0.067          5.4895146     -27.825528      309.29266     -54895.146      77.842609      77.753758      85.091913    
     33600   299.6472       0.0672         5.505265       156.04955      232.466       -55052.65       77.817579      77.767522      85.107862    
     33700   299.16221      0.0674         5.5249729      101.84302     -173.90441     -55249.729      77.733583      77.84837       85.123812    
     33800   300.81862      0.0676         5.5482098     -112.39026     -136.08143     -55482.098      77.784456      77.800847      85.139762    
     33900   299.53439      0.0678         5.5665326     -377.32252      59.673651     -55665.326      77.853393      77.719574      85.155712    
     34000   300.46797      0.068          5.5717729     -42.28617      -91.889009     -55717.729      77.765591      77.787207      85.171661    
     34100   301.83844      0.0682         5.5708049      322.16409     -311.60105     -55708.049      77.702361      77.843394      85.187611    
     34200   299.30695      0.0684         5.5974154     -141.69259      83.096606     -55974.154      77.803519      77.73273       85.203561    
     34300   298.55097      0.0686         5.6307042     -340.80999      115.0069      -56307.042      77.816457      77.71171       85.219511    
     34400   299.97105      0.0688         5.6361897      99.035812     -397.91258     -56361.897      77.670732      77.853646      85.23546     
     34500   302.18754      0.069          5.6505598     -37.223556     -244.96903     -56505.598      77.714743      77.792327      85.25141     
     34600   299.48274      0.0692         5.6739195     -288.48362      320.29943     -56739.195      77.835765      77.656723      85.26736     
     34700   301.12663      0.0694         5.6689396      23.951844      9.9006247     -56689.396      77.734323      77.747264      85.28331     
     34800   298.06136      0.0696         5.6720243      408.70969     -14.586488     -56720.243      77.644673      77.814717      85.299259    
     34900   299.74151      0.0698         5.7146806  4673      77.814717      85.299259    
     34900   299.74151      0.0698         5.7146806     -41.962559      98.900016     -57146.806      77.735294      77.721552      85.315209    
     35000   300.29166      0.07           5.7348592     -273.84933     -75.519859     -57348.592      77.770962      77.694403      85.331159    
     35100   298.20337      0.0702         5.7479011     -94.945351     -240.22406     -57479.011      77.708875      77.743514      85.347109    
     35200   299.59338      0.0704         5.7798476      22.823865     -209.76202     -57798.476      77.693837      77.741918      85.363058    
     35300   301.33513      0.0706         5.7729544     -5.2454672      138.12948     -57729.544      77.738113      77.685325      85.379008    
     35400   299.12506      0.0708         5.777116       129.45531      302.29742     -57771.16       77.707339      77.698063      85.394958    
     35500   298.13557      0.071          5.792327  
     35600   300.01748      0.0712         5.7945039     -17.731005     -94.399872     -57945.039      77.690972      77.706449      85.426857    
     35700   300.77025      0.0714         5.8557716     -408.88175     -78.363604     -58557.716      77.750484      77.646752      85.442807    
     35800   299.13462      0.0716         5.8732136     -440.51816     -408.23418     -58732.136      77.677597      77.712314      85.458757    
     35900   298.8966       0.0718         5.8703494     -123.34406     -529.42646     -58703.494      77.604808      77.774811      85.474707    
     36000   300.86023      0.072          5.8772092     -101.59346     -30.067155     -58772.092      77.679506      77.679945      85.490656    
     36100   299.96471      0.0722         5.8664583      49.136348      351.26238     -58664.583      77.69091       77.636348      85.506606    
     36200   299.17144      0.0724         5.8791117      409.61682      261.25653     -58791.117      77.614249      77.696538      85.522556    
     36300   301.84276      0.0726         5.9116308      186.8676       46.70526      -59116.308      77.624244      77.698065      85.538506    
     36400   298.35829      0.0728         5.929418      -129.73693      0.54207705    -59294.18       77.679819      77.638403      85.554455    
     36500   299.38553      0.073          5.9497705     -220.15446      42.52018      -59497.705      77.671305      77.632373      85.570405    
     36600   300.75326      0.0732         5.9560138      37.257453     -234.21135     -59560.138      77.626585      77.676133      85.586355    
     36700   300.0591       0.0734         5.9842437     -165.61642     -257.77368     -59842.437      77.632172      77.659771      85.602305    
     36800   299.02432      0.0736         6.0105594     -102.76509     -96.974753     -60105.594      77.645873      77.637771      85.618254    
     36900   300.67905      0.0738         5.9983111      67.392312     -29.417741     -59983.111      77.61229       77.652965      85.634204    
     37000   301.31388      0.074          6.0103036      233.84876      100.37678     -60103.036      77.597194      77.643895      85.650154    
     37100   298.3089       0.0742         6.0198728      204.31522      312.05008     -60198.728      77.628292      77.598187      85.666104    
     37200   300.68769      0.0744         6.0341086     -57.609683     -21.392628     -60341.086      77.628133      77.60777       85.682053    
     37300   299.59652      0.0746         6.0765192     -262.57159     -248.40627     -60765.192      77.603019      77.638165      85.698003    
     37400   298.37924      0.0748         6.0827796     -208.30272     -195.47825     -60827.796      77.607962      77.613922      85.713953    
     37500   299.46121      0.075          6.0634515     -79.979589      197.17768     -60634.515      77.595234      77.606272      85.729903    
     37600   299.46396      0.0752         6.0851094      233.61896      33.03195      -60851.094      77.565808      77.618621      85.745852    
     37700   298.81372      0.075460851.094      77.565808      77.618621      85.745852    
     37700   298.81372      0.0754         6.0997129      111.9161       309.32852     -60997.129      77.602001      77.568565      85.761802    
     37800   302.47297      0.0756         6.1276523     -146.76056      70.642642     -61276.523      77.616621      77.564206      85.777752    
     37900   299.70541      0.0758         6.163083      -138.30205     -300.14772     -61630.83       77.540036      77.641093      85.793702    
     38000   299.513        0.076          6.180714      -66.491215     -478.12766     -61807.14       77.512071      77.653281      85.809651    
     38100   299.5254       0.0762         6.1822278     -314.94923      22.739732     -61822.278      77.614619      77.536541      85.825601    
     38200   301.67315      0.0764         6.1744698     -242.86269      167.0373      -61744.698      77.612626      77.523846      85.841551    
     38300   299.64847      0.0391      85.857501    
     38400   300.61667      0.0768         6.1968672      468.88627      233.60646     -61968.672      77.496892      77.591241      85.87345     
     38500   301.38397      0.077          6.2012042      65.056655      401.8594      -62012.042      77.593334      77.499683      85.8894      
     38600   299.2666       0.0772         6.2289373     -186.48988      147.67369     -62289.373      77.583068      77.513263      85.90535     
     38700   299.04173      0.0774         6.266333      -198.52535     -446.21344     -62663.33       77.506061      77.591803      85.9213      
     38800   300.27223      0.0776         6.2956651     -523.21898     -594.4865      -62956.651      77.53074       77.582777      85.937249    
     38900   299.12751      0.0778         6.2822661     -360.40033     -250.10204     -62822.661      77.565294      77.519398      85.953199    
     39000   298.77461      0.078          6.2988901      33.832651      16.600763     -62988.901      77.539124      77.515257      85.969149    
     39100   301.85388      0.0782         6.291179       375.47337      40.714261     -62911.79       77.490324      77.546755      85.985099    
     39200   300.52308      0.0784         6.3018016      360.04718      286.75551     -63018.016      77.507327      77.509846      86.001048    
     39300   299.92546      0.0786         6.3212838      71.278033      439.57591     -63212.838      77.545141      77.461757      86.016998    
     39400   301.89678      0.0788         6.3434927     -125.88304     -96.882063     -63434.927      77.515832      77.509666      86.032948    
     39500   301.20198      0.079          6.3880502     -87.533318     -463.82171     -63880.502      77.469377      77.555527      86.048898    
     39600   297.74556      0.0792         6.3732362     -225.55645     -146.13515     -63732.362      77.508687      77.502546      86.064847    
     39700   299.86621      0.0794         6.3938874     -25.651881      18.786966     -63938.874      77.544651      77.447986      86.080797    
     39800   301.30682      0.0796         6.390104       124.2103       235.16817     -63901.04       77.493755      77.475698      86.096747    
     39900   299.72959      0.0798         6.39359        343.21643      263.50292     -63935.9        77.438339      77.511565      86.112697    
     40000   299.28673      0.08           6.4264344      214.71488      190.12837     -64264.344      77.472271      77.481586      86.128646    
     40100   300.57766      0.0802         6.454086      -234.52669     -65.231524     -64540.86       77.531935      77.430597      86.144596    
     40200   297.1528       0.0804         6.4842658     -363.41705     -344.7273      -64842.658      77.501833      77.464534      86.160546    
     40300   300.53933      0.0806         6.4944432     -250.90215     -592.80842     -64944.432      77.429975      77.530655      86.176496    
     40400   299.31172      0.0808         6.4823258      140.88153      84.163763     -64823.258      77.471019      77.449972      86.192445    
     40500   2     84.163763     -64823.258      77.471019      77.449972      86.192445    
     40500   299.12799      0.081          6.4602329      390.87518      928.30922     -64602.329      77.51339       77.358535      86.208395    
     40600   299.69676      0.0812         6.4634919      834.01209      708.81336     -64634.919      77.427561      77.439442      86.224345    
     40700   300.27704      0.0814         6.5140533      685.35153      106.88177     -65140.533      77.365058      77.510929      86.240295    
     40800   299.22213      0.0816         6.5460692     -9.066551      -78.124913     -65460.692      77.448591      77.440857      86.256244    
     40900   300.64541      0.0818         6.5783349     -439.89299     -119.61406     -65783.349      77.515565      77.382232      86.272194    
     41000   299.47159      0.082          6.6051647     -237.77295     -404.74809     -66051.647      77.460222      77.435019      86.288144    
     41100 7.411003      77.465625      86.304094    
     41200   297.72354      0.0824         6.5971103     -123.45947     -105.77323     -65971.103      77.439513      77.420806      86.320043    
     41300   300.90437      0.0826         6.599601       37.485618      158.36682     -65996.01       77.450773      77.383851      86.335993    
     41400   300.51873      0.0828         6.6045706      155.86244      264.49262     -66045.706      77.437203      77.388648      86.351943    
     41500   299.49196      0.083          6.6435837      222.92343      181.1288      -66435.837      77.408166      77.398766      86.367893    
     41600   300.61893      0.0832         6.6570616      98.396789      123.80992     -66570.616      77.395276      77.411138      86.383842    
     41700   299.57223      0.0834         6.6579133      157.62603      131.70137     -66579.133      77.403087      77.396115      86.399792    
     41800   300.50288      0.0836         6.6771875      66.400764      94.156016     -66771.875      77.409147      77.378763      86.415742    
     41900   297.75304      0.0838         6.6865038      96.988499     -122.21391     -66865.038      77.407914      77.376588      86.431692    
     42000   300.39064      0.084          6.7093992     -271.16327     -154.80078     -67093.992      77.419045      77.370978      86.447641    
     42100   301.95886      0.0842         6.7258433     -119.12106     -164.78245     -67258.433      77.386831      77.390158      86.463591    
     42200   298.52424      0.0844         6.7208522      409.51038      233.96895     -67208.522      77.332934      77.404367      86.479541    
     42300   300.56759      0.0846         6.6930341      566.87687      560.87653     -66930.341      77.354246      77.354755      86.495491    
     42400   301.69703      0.0848         6.7328064      108.15234      419.64784     -67328.064      77.405062      77.316315      86.51144     
     42500   297.92283      0.085          6.7967417     -194.65844     -120.6649      -67967.417      77.382701      77.357115      86.52739     
     42600   298.61168      0.0852         6.8048024     -343.41697     -475.14834     -68048.024      77.342031      77.405806      86.54334     
     42700   300.7634       0.0854         6.8150336     -402.30868     -459.28408     -68150.336      77.372993      77.362023      86.55929     
     42800   296.73359      0.0856         6.8020832     -104.16905      77.167955     -68020.832      77.410586      77.287966      86.575239    
     42900   299.24352      0.0858         6.806709       376.32866      400.2704      -68067.09       77.356288      77.311446      86.591189    
     43000   300.42754      0.086          6.7725447      904.20955      567.01614     -67725.447      77.269643      77.36838       86.607139    
     43100   298.32959      0.0862         6.8196773      563.63566      370.52221     -68196.773      77.319351      77.324582      86.623089    
     43200   299.05766      0.0864         6.8537909     -168.47325      179.05166     -68537.909      77.390216      77.272133      86.639037909     -168.47325      179.05166     -68537.909      77.390216      77.272133      86.639038    
     43300   301.74347      0.0866         6.8918152     -431.89999     -387.59409     -68918.152      77.345909      77.330303      86.654988    
     43400   300.29807      0.0868         6.9033544     -294.41463     -587.71665     -69033.544      77.296737      77.370705      86.670938    
     43500   298.67349      0.087          6.9056934     -226.25316     -251.33394     -69056.934      77.334247      77.308987      86.686888    
     43600   301.51302      0.0872         6.9036356     -229.3833       108.58515     -69036.356      77.357586      77.268186      86.702837    
     43700   299.62363      0.0874         6.8947242      234.41195      331.05052     -68947.242      77.30958       77.289205      86.718787    
     43800   297.74865      0.0876         6.8919985      582.23544      373.13076     -68919.985      77.261624      77.309958      86.73   -69214.313      77.271897      77.299795      86.750687    
     44000   300.59698      0.088          6.9551656     -27.089988     -86.597928     -69551.656      77.307493      77.284545      86.766636    
     44100   300.31237      0.0882         6.982957      -461.06479     -312.49065     -69829.57       77.333499      77.263957      86.782586    
     44200   298.30273      0.0884         7.0053387     -287.07508     -320.2518      -70053.387      77.310533      77.276829      86.798536    
     44300   301.84104      0.0886         7.0048282     -84.375445     -438.88496     -70048.282      77.250734      77.325163      86.814486    
     44400   300.52541      0.0888         7.0057637      265.74292     -9.0185927     -70057.637      77.248296      77.292386      86.830435    
     44500   299.50096      0.089          6.9997004      271.49158      545.55871     -69997.004      77.303979      77.21444       86.846385    
     44600   299.79879      0.0892         7.0061658      392.37735      488.45107     -70061.658      77.282095      77.226164      86.862335    
     44700   299.79401      0.0894         7.0435247      163.95752      51.325677     -70435.247      77.24003       77.276406      86.878285    
     44800   298.55503      0.0896         7.0819818     -118.26099     -301.76191     -70819.818      77.248685      77.278421      86.894234    
     44900   300.15332      0.0898         7.0865675     -354.74133     -290.49797     -70865.675      77.303138      77.22667       86.910184    
     45000   298.62199      0.09           7.0896169     -430.27978     -144.56154     -70896.169      77.31416       77.197086      86.926134    
     45100   299.38022      0.0902         7.0963222     -4.9019461     -48.290494     -70963.222      77.252603      77.236924      86.942084    
     45200   301.48518      0.0904         7.0914917      284.40503     -132.19788     -70914.917      77.216974      77.25873       86.958033    
     45300   297.1416       0.0906         7.1070779      59.989335      229.08963     -71070.779      77.279391      77.181028      86.973983    
     45400   301.21444      0.0908         7.1536252     -206.80955     -76.038987     -71536.252      77.312865      77.154425      86.989933    
     45500   299.45083      0.091          7.1325746     -101.99825     -250.82446     -71325.746      77.241717      77.224436      87.005883    
     45600   300.20251      0.0912         7.1428368      182.4117      -306.78106     -71428.368      77.177932      77.267472      87.021832    
     45700   298.55627      0.0914         7.1728107     -86.276853     -1.5171098     -71728.107      77.258407      77.172523      87.037782    
     45800   300.51243      0.0916         7.1768297     -35.781292      267.84404     -71768.297      77.294993      77.12151       87.053732    
[...]
    137900   297.56264      0.2758         2.4208666     -252.56029     -524.9717      -24208.666      72.048005      69.818059      101.74345    
    138000   301.10223      0.276          2.358072.048005      69.818059      101.74345    
    138000   301.10223      0.276          2.3580287     -261.8248      -32.320438     -23580.287      72.060996      69.764953      101.7594     
    138100   299.05019      0.2762         2.246411       207.77027      48.97262      -22464.11       72.018951      69.765221      101.77535    
    138200   299.70091      0.2764         2.1746752      267.56351      345.55798     -21746.752      72.036095      69.720834      101.7913     
    138300   300.79309      0.2766         2.1351762      230.99382      401.82263     -21351.762      72.056115      69.690058      101.80725    
    138400   300.06907      0.2768         2.1193144      258.90781      178.7775      -21193.144      72.050832      69.68056       101.8232     
    138500   301.12626      0.277          2.1126104      190.4361      -128.77549     -21126.104      72.051207      69.670761      101.83915    
    138600   300.03265      0.2772         2.151     
    138700   300.06267      0.2774         2.0874479     -183.4534      -391.70705     -20874.479      72.096756      69.616594      101.87105    
    138800   300.64975      0.2776         2.025308      -407.98638     -309.83257     -20253.08       72.10918       69.592711      101.887      
    138900   299.74688      0.2778         1.9458011     -134.6858      -54.081649     -19458.011      72.112433      69.556616      101.90295    
    139000   300.82871      0.278          1.9121169      338.25363      114.21615     -19121.169      72.096828      69.537628      101.9189     
    139100   297.63182      0.2782         1.8657691      197.0612       580.82275     -18657.691      72.142213      69.467086      101.93485    
    139200   298.76688      0.2784         1.8455623      419.86304      119.73624     -18455.623      72.101579      69.496465      101.9508     
    139300   301.65451      0.2786         1.8656052      11.927101     -396.1688      -18656.052      72.133941      69.47279       101.96675    
    139400   298.60643      0.2788         1.865355      -731.55271      125.13906     -18653.55       72.233508      69.373872      101.9827     
    139500   298.13053      0.279          1.8257425      78.038971     -779.43918     -18257.425      72.116423      69.472903      101.99865    
    139600   301.41955      0.2792         1.7818688     -301.56746      126.37867     -17818.688      72.15778       69.406725      102.0146     
    139700   301.14688      0.2794         1.760589       57.647918      92.471323     -17605.89       72.097196      69.448198      102.03055    
    139800   300.03482      0.2796         1.7232879      351.3709       156.38045     -17232.879      72.05229       69.464441      102.0465     
    139900   301.20006      0.2798         1.7041004      100.04973      331.47932     -17041.004      72.115514      69.39376       102.06245    
    140000   297.87298      0.28           1.6698166      24.741769      198.56771     -16698.166      72.106064      69.385848      102.0784     
    140100   300.35888      0.2802         1.676782       404.73509     -232.67287     -16767.82       72.065552      69.418918      102.09435    
    140200   301.52373      0.2804         1.6627553     -319.97695      119.17549     -16627.553      72.157415      69.327807      102.1103     
    140300   298.5252       0.2806         1.6779459     -161.72365     -203.84653     -16779.459      72.145891      69.325438      102.12624    
    140400   298.93307      0.2808         1.6770095     -255.45166     -246.70691     -16770.095      72.150858      69.312769      102.14219    
    140500   300.39257      0.281          1.6930732     -150.53932      16.222906     -16930.732      72.167335      69.2802        102.15814    
    140600   299.10955      0.2812         1.7087181      228.24552      72.626124     -17087.181      72.125982      69.297347      102.17409    
    140700   301.66601      0.2814         1.6847057      139.37669      214.86705     -16847.057      72.130615      69.278622      102.19004    
    140800   299.64112      0    -16847.057      72.130615      69.278622      102.19004    
    140800   299.64112      0.2816         1.6840797      226.59105      320.21704     -16840.797      72.117286      69.278488      102.20599    
    140900   298.44155      0.2818         1.6715199      441.79716      241.70934     -16715.199      72.077866      69.296093      102.22194    
    141000   300.18232      0.282          1.6453797      103.19585      292.48695     -16453.797      72.10408       69.271532      102.23789    
    141100   299.99334      0.2822         1.6437732      44.016475      16.136285     -16437.732      72.089628      69.265521      102.25384    
    141200   298.94029      0.2824         1.6253432     -1.9791708     -330.57652     -16253.432      72.045949      69.303298      102.26979    
    141300   301.53534      0.2826         1.6129533     -395.59783     -328.21012     -16129.533      72.05622       69.290614      102.28574    
    141400   299.73184    9.289728      102.30169    
    141500   299.28241      0.283          1.5325454      74.900762     -286.86966     -15325.454      71.983891      69.309046      102.31764    
    141600   301.54593      0.2832         1.5364924     -324.9485      -32.760417     -15364.924      72.005323      69.281452      102.33359    
    141700   298.39287      0.2834         1.5047636      171.27169      79.324324     -15047.636      71.966577      69.290583      102.34954    
    141800   299.51368      0.2836         1.4629419      264.77337      234.06004     -14629.419      71.967281      69.270162      102.36549    
    141900   302.8582       0.2838         1.4530398      166.20189      362.20856     -14530.398      71.991408      69.233222      102.38144    
    142000   298.48865      0.284          1.4583241      571.51868      212.58163     -14583.241      71.94546       69.259666      102.39739    
    142100   302.2888       0.2842         1.4779311      7.5131562      420.88069     -14779.311      71.996202      69.208203      102.41334    
    142200   301.03032      0.2844         1.4850237     -69.951805     -157.69064     -14850.237      71.985677      69.22085       102.42929    
    142300   300.25629      0.2846         1.5081204     -270.59661     -342.36403     -15081.204      71.980136      69.220251      102.44524    
    142400   301.4481       0.2848         1.5234621     -590.00322     -307.2772      -15234.621      72.023253      69.178192      102.46119    
    142500   299.86706      0.285          1.5095304     -154.41342     -575.32282     -15095.304      71.975215      69.210862      102.47714    
    142600   299.1375       0.2852         1.5154599     -117.99813      203.29631     -15154.599      72.019283      69.138112      102.49309    
    142700   299.32998      0.2854         1.4747383      306.57054      483.67255     -14747.383      71.9871        69.140561      102.50904    
    142800   301.03621      0.2856         1.4833735      613.52134      69.638622     -14833.735      71.931401      69.182856      102.52499    
    142900   300.33169      0.2858         1.4888651      109.65523      645.616       -14888.651      71.997526      69.109405      102.54094    
    143000   299.90254      0.286          1.5142535      157.25804      167.65789     -15142.535      71.94167       69.165378      102.55689    
    143100   301.6165       0.2862         1.5352903      69.755759     -131.57609     -15352.903      71.920057      69.188215      102.57284    
    143200   299.0794       0.2864         1.5903756     -435.4646      -252.83261     -15903.756      71.936851      69.180445      102.58879    
    143300   297.97942      0.2866         1.5946223     -385.05208     -429.73674     -15946.223      71.912892      69.198454      102.60474    
    143400   300.453        0.2868         1.5976693     -410.94967     -478.22844     -15976.693      71.915127      69.186246      102.62069    
    143500   299.93016      0.287          1.59598       -282.23118     -158.38047     -15959.8        71.913915      69.170433      102.63664    
    143603118     -158.38047     -15959.8        71.913915      69.170433      102.63664    
    143600   298.25121      0.2872         1.5767898      232.66247     -90.955085     -15767.898      71.897876      69.158381      102.65259    
    143700   298.10054      0.2874         1.554342       300.82958      608.60353     -15543.42       71.948902      69.077612      102.66854    
    143800   302.05138      0.2876         1.5380641      870.7665       673.88167     -15380.641      71.90803       69.095049      102.68449    
    143900   303.1245       0.2878         1.5341513      844.66508      696.81045     -15341.513      71.930796      69.057487      102.70044    
    144000   299.79609      0.288          1.5523017      111.9014       613.10937     -15523.017      72.001535      68.991923      102.71639    
    144100   299.97552      0.2882         1.5772931     -148.42928     -396.95251     -15772.931      71.975435      69.038259      102.73234    
    14    72.011726      69.013127      102.74829    
    144300   298.2079       0.2886         1.5667232     -538.08251     -452.33367     -15667.232      72.014664      68.989755      102.76423    
    144400   300.65039      0.2888         1.5196366     -29.065813     -431.25528     -15196.366      71.979752      68.991684      102.78018    
    144500   301.34344      0.289          1.4809554     -30.967576      105.78517     -14809.554      72.044092      68.908908      102.79613    
    144600   300.85941      0.2892         1.436161       167.57485      333.07801     -14361.61       72.072697      68.844529      102.81208    
    144700   298.51389      0.2894         1.4410386      491.01707      153.74776     -14410.386      72.036145      68.865667      102.82803    
    144800   300.53443      0.2896         1.4417745      95.633586      126.70725     -14417.745      72.068398      68.841523      102.84398    
    144900   301.01937      0.2898         1.4386052     -91.175912     -50.473316     -14386.052      72.0847        68.819436      102.85993    
    145000   301.48693      0.29           1.4252086     -93.801217     -192.77524     -14252.086      72.080549      68.809379      102.87588    
    145100   300.096        0.2902         1.3979423     -300.24604      31.255346     -13979.423      72.086526      68.795235      102.89183    
    145200   299.9585       0.2904         1.3790936      36.969254     -234.26679     -13790.936      72.029881      68.83754       102.90778    
    145300   300.41485      0.2906         1.3809388     -94.461994     -171.12644     -13809.388      72.047869      68.801917      102.92373    
    145400   301.83864      0.2908         1.365855      -178.98663     -14.456821     -13658.55       72.071919      68.766622      102.93968    
    145500   302.42269      0.291          1.3644747      358.27604     -135.38032     -13644.747      72.012374      68.809289      102.95563    
    145600   299.4015       0.2912         1.3493319      210.31707      445.28874     -13493.319      72.049322      68.748038      102.97158    
    145700   299.90475      0.2914         1.3194893      194.99482      479.97004     -13194.893      72.070987      68.713086      102.98753    
    145800   302.00663      0.2916         1.3075192      327.11863      147.98665     -13075.192      72.054067      68.721028      103.00348    
    145900   300.65992      0.2918         1.2679675     -179.38644      102.74938     -12679.675      72.074627      68.687809      103.01943    
    146000   298.49332      0.292          1.2892025     -406.84672     -867.01076     -12892.025      72.04735       68.726029      103.03538    
    146100   302.50463      0.2922         1.2704388     -1002.2785     -957.75833     -12704.388      72.093053      68.684498      103.05133    
    146200   301.20596      0.2924         1.227224      -937.14794     -378.51173     -12272.24       72.132038      68.622749      103.06728    
    146300   300.96101      0.2926         1.1603317      118.50078     -472.58804     -11603.317      72.032678      68.666657      1031.1603317      118.50078     -472.58804     -11603.317      72.032678      68.666657      103.08323    
    146400   298.22126      0.2928         1.0696001      429.41685      601.20469     -10696.001      72.04934       68.60449       103.09918    
    146500   300.54831      0.293          1.0145248      591.67895      1004.2525     -10145.248      72.034927      68.590851      103.11513    
    146600   301.15085      0.2932         0.9909598      868.29848      439.09635     -9909.598       71.976785      68.63011       103.13108    
    146700   299.52872      0.2934         0.99752639     189.97979      325.86251     -9975.2639      72.024787      68.595577      103.14703    
    146800   300.32406      0.2936         1.0357472     -157.28221     -213.14357     -10357.472      72.028395      68.611461      103.16298    
    146900   300.88426      0.2938         1.0795549     -519.01967     -850.76701     -10795.549      72.019629      68.630121      324     -11108.208      72.049125      68.58641       103.19488    
    147100   300.03172      0.2942         1.1126501     -120.90546     -425.05327     -11126.501      71.997296      68.61769       103.21083    
    147200   300.72753      0.2944         1.0952868      199.03674      141.92025     -10952.868      71.992385      68.595133      103.22678    
    147300   299.14098      0.2946         1.1051456      410.25657      601.91882     -11051.456      72.014791      68.546626      103.24273    
    147400   299.84782      0.2948         1.1200685      562.28353      479.04305     -11200.685      71.963684      68.584211      103.25868    
    147500   299.43882      0.295          1.1535076      359.98661      381.96965     -11535.076      71.989213      68.566906      103.27463    
    147600   301.92018      0.2952         1.1926881     -47.68192      -9.2225889     -11926.881      72.013752      68.554127      103.29058    
    147700   299.08729      0.2954         1.2152794     -180.58341     -308.42232     -12152.794      71.996643      68.575111      103.30653    
    147800   298.57023      0.2956         1.214141      -369.24852     -50.353851     -12141.41       72.021962      68.531961      103.32248    
    147900   300.18458      0.2958         1.2101115     -56.224682     -508.08792     -12101.115      71.962154      68.586536      103.33843    
    148000   298.09844      0.296          1.2056622     -234.58609     -81.7963       -12056.622      71.989871      68.546273      103.35438    
    148100   299.1252       0.2962         1.2040794      17.038052      170.15043     -12040.794      71.986912      68.524114      103.37033    
    148200   301.27634      0.2964         1.1949146      350.28402      54.534894     -11949.146      71.935521      68.558449      103.38628    
    148300   301.37859      0.2966         1.1840464     -37.909602      369.46005     -11840.464      71.96132       68.522255      103.40222    
    148400   298.76658      0.2968         1.209078       118.54717     -70.763739     -12090.78       71.916331      68.558624      103.41817    
    148500   299.2125       0.297          1.2113934     -63.279549     -34.280895     -12113.934      71.928754      68.547999      103.43412    
    148600   301.81327      0.2972         1.2324142     -187.52755      113.29689     -12324.142      71.951423      68.52311       103.45007    
    148700   301.61476      0.2974         1.2234722      181.46722     -56.630954     -12234.722      71.901908      68.553754      103.46602    
    148800   299.05557      0.2976         1.20022        113.05473      278.08777     -12002.2        71.923622      68.508567      103.48197    
    148900   299.65898      0.2978         1.221346       217.42296      283.22429     -12213.46       71.892494      68.530289      103.49792    
    149000   300.14656      0.298          1.2326461      350.50711     -60.608157     -12326.461      71.860175      68.55664       103.51387    
    149100   298.85406      0.2982         1.2784931     -585.84465      197.77131     -12784.931      71.949847         0.2982         1.2784931     -585.84465      197.77131     -12784.931      71.949847      68.479121      103.52982    
    149200   298.0247       0.2984         1.3324656     -294.65617     -894.09543     -13324.656      71.865431      68.577997      103.54577    
    149300   297.30614      0.2986         1.36029       -531.21234     -561.46894     -13602.9        71.903771      68.529171      103.56172    
    149400   301.16092      0.2988         1.3342185     -555.68673     -139.94842     -13342.185      71.923851      68.491425      103.57767    
    149500   299.85487      0.299          1.3084791      391.44184     -157.53585     -13084.791      71.834066      68.546922      103.59362    
    149600   301.43252      0.2992         1.2826249      278.77453      635.17263     -12826.249      71.884783      68.46821       103.60957    
    149700   298.86727      0.2994         1.2903365      694.51155      522.39144     -12903.365      71.861851 58.65558      180.18075     -13157.008      71.84313       68.504528      103.64147    
    149900   301.05662      0.2998         1.3347837     -60.783827      40.929114     -13347.837      71.849472      68.490854      103.65742    
    150000   299.94009      0.3            1.3761398     -278.39305     -363.39674     -13761.398      71.845159      68.506483      103.67337    
Loop time of 1196.69 on 1 procs for 150000 steps with 42592 atoms

Performance: 21.660 ns/day, 1.108 hours/ns, 125.346 timesteps/s, 5.339 Matom-step/s
99.9% CPU use with 1 MPI tasks x 1 OpenMP threads

MPI task timing breakdown:
Section |  min time  |  avg time  |  max time  |%varavg| %total
---------------------------------------------------------------
Pair    | 587.11     | 587.11     | 587.11     |   0.0 | 49.06
Neigh   | 1.0024     | 1.0024     | 1.0024     |   0.0 |  0.08
Comm    | 30.722     | 30.722     | 30.722     |   0.0 |  2.57
Output  | 366.81     | 366.81     | 366.81     |   0.0 | 30.65
Modify  | 191.36     | 191.36     | 191.36     |   0.0 | 15.99
Other   |            | 19.68      |            |       |  1.64

Nlocal:          42592 ave       42592 max       42592 min
Histogram: 1 0 0 0 0 0 0 0 0 0
Nghost:          46626 ave       46626 max       46626 min
Histogram: 1 0 0 0 0 0 0 0 0 0
Neighs:              0 ave           0 max           0 min
Histogram: 1 0 0 0 0 0 0 0 0 0
FullNghs:  1.98574e+07 ave 1.98574e+07 max 1.98574e+07 min
Histogram: 1 0 0 0 0 0 0 0 0 0

Total # of neighbors = 19857420
Ave neighs/atom = 466.22417
Neighbor list builds = 935
Dangerous builds = 0


---------------------------------------------------------------------
      Device Time Info (average): 
---------------------------------------------------------------------
Data Transfer:   42.5867 s.
Neighbor copy:   0.0348 s.
Neighbor build:  1.6755 s.
Force calc:      473.4802 s.
Device Overhead: 2.8191 s.
CPU Neighbor:    0.7442 s.
CPU Cast/Pack:   71.5625 s.
CPU Driver_Time: 2.3282 s.
CPU Idle_Time:   424.4296 s.
Average split:   1.0000.
Max Mem / Proc:  161.40 MB.
Prefetch mode:   None.
Vector width:    32.
Lanes / atom:    4.
Pair block:      256.
Neigh block:     128.
Neigh mode:      Hybrid (binning on host) with subgroup support.
Neigh sorting:   Unavailable or disabled.
---------------------------------------------------------------------

Total wall time: 0:20:11
