LAMMPS (10 Dec 2025)
OMP_NUM_THREADS environment is not set. Defaulting to 1 thread.
  using 1 OpenMP thread(s) per MPI task
units metal
boundary p p s
atom_style atomic
timestep 0.002
read_data data.interface
Reading data file ...
  orthogonal box = (0 0 0) to (60.701582 60.701582 63.73)
  2 by 1 by 2 MPI processor grid
  reading atoms ...
  16407 atoms
  read_data CPU = 0.052 seconds

pair_style eam/alloy
pair_coeff * * /mnt/c/Users/iwash/Documents/Repositories/Lammps/potentials/AlCu.eam.alloy Al Cu
Reading eam/alloy potential file /mnt/c/Users/iwash/Documents/Repositories/Lammps/potentials/AlCu.eam.alloy with DATE: 2008-10-01

neighbor 2.0 bin
neigh_modify delay 10 check yes

thermo 100
thermo_style custom step temp pe press pxx pyy lx ly lz

print '=== Phase 0: Shake (High-T limit) ==='
=== Phase 0: Shake (High-T limit) ===
velocity all create 1000.0 21578 dist gaussian
fix shake all nve/limit 0.1
run 1000
Neighbor list info ...
  update: every = 1 steps, delay = 10 steps, check = yes
  max neighbors/atom: 2000, page size: 100000
  master list distance cutoff = 8.6825
  ghost atom cutoff = 8.6825
  binsize = 4.34125, bins = 14 14 14
  1 neighbor lists, perpetual/occasional/extra = 1 0 0
  (1) pair eam/alloy, perpetual
      attributes: half, newton on
      pair build: half/bin/atomonly/newton
      stencil: half/bin/3d
      bin: standard
Per MPI rank memory allocation (min/avg/max) = 4.462 | 5.032 | 5.602 Mbytes
   Step          Temp          PotEng         Press           Pxx            Pyy             Lx             Ly             Lz      
         0   1000          -55599.503      21886.642      21612.912      21810.102      60.701582      60.701582      60.025904    
       100   623.79057     -54800.886      26767.461      27813.466      28292.097      60.701582      60.701582      61.822788    
       200   609.73041     -54770.124      13729.643      16537.214      16458.192      60.701582      60.701582      62.50691     
       300   598.79698     -54746.409      3112.6716      6971.5601      7301.5268      60.701582      60.701582      62.765165    
       400   577.2115      -54699.669     -5938.5363     -1220.8021     -1292.7476      60.701582      60.701582      63.140697    
       500   566.86381     -54677.109     -7325.2038     -2763.4816     -3441.5635      60.701582      60.701582      63.777358    
       600   555.03135     -54651.611     -10087.166     -5832.2309     -5923.5466      60.701582      60.701582      64.918076    
       700   539.18437     -54617.785     -8176.0105     -4253.0867     -4290.7395      60.701582      60.701582      64.795833    
       800   562.3911      -54667.572     -1772.5707      1415.2596      1236.8316      60.701582      60.701582      64.510022    
       900   588.84549     -54723.985      189.66042      3031.854       3312.2365      60.701582      60.701582      63.709017    
      1000   598.94311     -54746.192      2208.813       5443.0286      5195.6404      60.701582      60.701582      63.512067    
Loop time of 10.4968 on 4 procs for 1000 steps with 16407 atoms

Performance: 16.462 ns/day, 1.458 hours/ns, 95.267 timesteps/s, 1.563 Matom-step/s
104.5% CPU use with 4 MPI tasks x 1 OpenMP threads

MPI task timing breakdown:
Section |  min time  |Modify  | 0.021323   | 0.025562   | 0.030711   |   2.6 |  0.24
Other   |            | 0.02238    |            |       |  0.21

Nlocal:        4101.75 ave        4898 max        3284 min
Histogram: 2 0 0 0 0 0 0 0 0 2
Nghost:         6431.5 ave        6605 max        6247 min
Histogram: 1 1 0 0 0 0 0 0 0 2
Neighs:         374415 ave      517343 max      230288 min
Histogram: 2 0 0 0 0 0 0 0 0 2

Total # of neighbors = 1497660
Ave neighs/atom = 91.28177
Neighbor list builds = 33
Dangerous builds = 0
=== Phase 1: 0K Relaxation ===
Switching to 'neigh_modify every 1 delay 0 check yes' setting during minimization
Setting up cg style minimization ...
  Unit style    : metal
  Current step  : 1000
WARNING: Energy due to 3 extra global DOFs will be included in minimizer energies
 (src/min.cpp:222)
Per MPI rank memory allocation (min/avg/max) = 5.587 | 6.185unfix shake
velocity all set 0 0 0

# x,y方向の箱寸法 + 原子位置を同時最適化（z方向はshrink-wrap）
print '=== Phase 1: 0K Relaxation ==='
=== Phase 1: 0K Relaxation ===
fix relax all box/relax x 0.0 y 0.0 vmax 0.001
minimize 1.0e-8 1.0e-10 10000 100000
Switching to 'neigh_modify every 1 delay 0 check yes' setting during minimization
WARNING: Energy due to 3 extra global DOFs will be incluLoop time of 1.76953 on 4 procs for 82 steps with 16407 atoms

103.3% CPU use with 4 MPI tasks x 1 OpenMP threads

Minimization stats:
  Stopping criterion = linesearch alpha is zero
  Energy initial, next-to-last, final = 
     -54746.1920378319  -54912.3428532582  -54912.3428532582
  Force two-norm initial, final = 119.37627 147.94293
  Force max component initial, final = 40.852228 93.979746
  Final line search alpha, max atom move = 3.1711431e-13 2.9802322e-11
  Iterations, force evaluations = 82 139

MPI task timing breakdown:
Section |  min time  |  avg time  |  max time  |%varavg| %total
---------------------------------------------------------------
Pair    | 1.7223     | 1.7226     | 1.723      |   0.0 | 97.35
Neigh   | 0          | 0          | 0          |   0.0 |  0.00
Comm    | 0.01392    | 0.01415    | 0.014367   |   0.1 |  0.80
Output  | 0          | 0          | 0          |   0.0 |  0.00
Modify  | 0          | 0          | 0          |   0.0 |  0.00
Other   |            | 0.03273    |            |       |  1.85

Nlocal:        4101.75 ave        4891 max        3315 min
Histogram: 2 0 0 0 0 0 0 0 0 2
Nghost:           6430 ave        6612 max        6241 min
Histogram: 2 0 0 0 0 0 0 0 0 2
Neighs:         374899 ave      517035 max      233944 min
Histogram: 2 0 0 0 0 0 0 0 0 2

Total # of neighbors = 1499597
Ave neighs/atom = 91.399829
Neighbor list builds = 0
Dangerous builds = 0
=== Phase 2: Annealing at 600.0K for 10.0ps ===
Setting up Verlet run ...
  Unit style    : metal
  Current step  : 0
  Time step     : 0.002
Per MPI rank memory allocation (min/avg/max) = 4.462 | 5.06 | 5.657 Mbytes
   Step          Temp          PotEng         Press           Pxx            Pyy             Lx             Ly             Lz      
         0   600           -54912.343      2508.9392      6191.1888      6517.4533      60.568533      60.542382      63.373982    
       100   559.62471     -54721.79unfix relax

# 界面近傍の原子配置を緩和（ミスフィット軽減）
print '=== Phase 2: Annealing at 600.0K for 10.0ps ==='
=== Phase 2: Annealing at 600.0K for 10.0ps ===
reset_timestep 0
velocity all create 600.0 21578 dist gaussian
fix ann all npt temp 600.0 600.0 0.1 x 0.0 0.0 1.0 y 0.0 0.0 1.0
run 5000
Per MPI rank memory allocation (min/avg/max) = 4.462 | 5.06 | 5.657 Mbytes
   Step          Temp          PotEng         Press           Pxx            Pyy             Lx             Ly             Lz      
         0   600           -54912.343      2508.9392      6191.1888      6517.4533      60.568533      60.542382      63.373982    
       100   559.62471     -54721.791     -4797.3686     -2550.279      -2264.371       60.987305      61.002594      63.769786    
       200   595.18235     -54681.766     -746.12348      1361.6979      907.88617      61.015943      61.075837      63.263652    
       300   608.37923     -54631.453     -108.70459      262.21186      737.12945      61.260142      61.249716      63.069404    
       400   598.21289     -54615.687     -319.43143     -74.735714     -827.54994      61.465525      61.489738      62.924143    
       500   596.64528     -54661.455      642.87887      465.79507      567.77381      61.516202      61.487963      62.381818    
       600   597.94427     -54699.483      559.82235      734.57485      294.48502      61.521674      61.549788      61.910779    
       700   590.81167     -54692.535      424.98022      185.81876      376.1011       61.641628      61.683374      61.508268    
       800   600.3865      -54668.115      784.25599      262.2097       448.28326      61.796362      61.771615      61.145772    
       900   601.3848      -54683.787      1500.3345     -162.94784      672.47528      61.985755      61.911782      60.95014     
      1000   592.10231     -54692.819      2216.0326      234.23394      812.07268      62.071608      62.133318      60.879408    
      1100   595.69321     -54651.095      1970.4101      385.68831     -404.76614      62.152996      62.237799      60.763715    
      1200   610.92811     -54652.778      1027.1281     -1183.292      -465.17858      62.207611      62.236693      60.63399     
      1300   603.14992     -54675.299      1121.2606      3.6197529     -503.29977      62.075668      62.125194      60.798453    
      1400   596.33806     -54687.352      595.38154      292.42047     -258.72778      61.940757      61.998319      60.896215    
      1500   599.67954     -54672.98       264.75246      196.05351     -376.32137      61.904275      61.953112      60.671689    
      1600   604.77271     -54673.444      39.705407     -781.90619      468.66845      61.884853      61.822473      61.130815    
      1700   597.63603     -54684.049      30.853597      79.849755     -665.02241      61.777265      61.817208      61.636724    
      1800   590.71655     -54645.568      204.67791     -248.8986      -65.903484      61.795245      61.784831      61.583149    
      1900   606.24929     -54648.336     -858.14644     -1022.0785     -599.52774      61.694623      61.68438       61.963677    
      2000   603.82999     -54660.876     -1105.2149     -480.52986     -807.41806      61.506621      61.565017      62.637993    
      2100   597.13084     -54659.152     -873.86182      306.27152      395.41784      61.397      2700   606.53167     -54654.835     -392.87985      151.41924     -368.00146      61.538343      61.57099       62.400193    
      2800   603.53217     -54679.593     -363.02692     -340.64834      35.604082      61.56357       61.556298      62.193569    
      2900   597.14867     -54676.648     -678.8446      -54.58661      -472.27792      61.581021      61.640816      62.434133    
      3000   606.56906     -54667.445     -99.047046      183.68061     -102.64826      61.650498      61.71326       62.066037    
      3100   600.83765     -54672.219      331.73283     -5.7133044      37.018803      61.788395      61.793199      61.639569    
      3200   598.39751     -54676.02        2700   606.53167     -54654.835     -392.87985      151.41924     -368.00146      61.538343      61.57099       62.400193    
      2800   603.53217     -54679.593     -363.02692     -340.64834      35.604082      61.56357       61.556298      62.193569    
      2900   597.14867     -54676.648     -678.8446      -54.58661      -472.27792      61.581021      61.640816      62.434133    
      3000   606.56906     -54667.445     -99.047046      183.68061     -102.64826      61.650498      61.71326       62.066037    
      3100   600.83765     -54672.219      331.73283     -5.7133044      37.018803      61.788395      61.793199      61.639569    
      3200   598.39751     -54676.02       493.27194     -81.703337     -673.48425      61.880494      61.937856      61.216451    
      3300   601.10157     -54649.108      2388.9768      1003.0443      1394.1443      61.951265      61.960607      61.157409    
      3400   599.86991     -54650.403      1155.8799     -132.85617     -344.56621      61.997385      62.008144      61.547882    
      3500   598.28753     -54675.024      542.5656      -377.56791     -581.29853      61.952045      61.962435      61.042875    
      3600   594.94955     -54669.062      1480.7856      343.60441      1333.9247      61.912254      61.877211      61.238505    
      3700   605.75138     -54664.676     -145.76841     -231.34174     -843.91151      61.837932      61.941519      61.492119    
      3800   602.18738     -54675.576      348.1211      -113.40649      149.81424      61.835063      61.836952      61.427869    
      3900   593.86354     -54666.786      773.81459      224.85622      481.40471      61.813541      61.802472      61.867371    
      4000   602.90969     -54659.783      200.77693     -151.66035     -202.44656      61.797282      61.800005      62.43583     
      4100   605.20604     -54659.203      201.43112     -57.045165     -87.617237      61.735648      61.701438      62.687916    
      4200   602.27338     -54672.937     -399.4152       183.71583     -248.35155      61.606732      61.617547      62.374276    
      4300   598.14748     -54668.109     -562.90729      49.747461      314.29234      61.529509      61.480271      62.576092    
      4400   601.63969     -54664.481     -1385.6251     -280.22023     -625.67938      61.461552      61.465522      62.922539    
      4500   601.34981     -54649.781     -928.69273      326.07485      100.82762      61.424447      61.445066      62.836248    
      4600   596.51867     -54665.822     -614.33449      50.613836      510.77629      61.441298      61.405726      62.893506    
      4700   590.06916     -54649.665     -714.32427     -273.9519      -55.63392       61.498522      61.450523      62.513938    
      4800   604.34525     -54651.294     -474.29322      73.521442     -80.147902      61.496458      61.525247      62.57386     
      4900   597.29077     -54644.033     -262.Comm    | 1.912      | 9.7635     | 17.517     | 245.8 | 17.87
Output  | 0.0023378  | 0.0028102  | 0.0039666  |   1.3 |  0.01
Modify  | 0.66526    | 0.71711    | 0.77243    |   6.0 |  1.31
Other   |            | 0.1384     |            |       |  0.25

Nlocal:        4101.75 ave        4918 max        3302 min
Histogram: 2 0 0 0 0 0 0 0 0 2
Nghost:           6303 ave        6517 max        6107 min
Histogram: 2 0 0 0 0 0 0 0 1 1
Neighs:         373094 ave      520990 max      227178 min
Histogram: 2 0 0 0 0 0 0 0 0 2

Total # of neighbors = 1492376
Ave neighs/atom = 90.959712
Neighbor list builds = 170
Dangerous builds = 0
=== Phase 2b: Cooling 600.0K -> 300.0K ===
Setting up Verlet run ...
  Unit style    : metal
  Current step  : 5000
  Time step     : 0.002
Per MPI rank memory allocation (min/avg/max) = 4.463 | 5.061 | 5.658 Mbytes
   Step          Temp          PotEng         Press           Pxx            Pyy             Lx             Ly             Lz      
      5000   601.00983     -54683.921     -581.42729     -308.78191      189.87083      61.542969      61.476612      62.160669    
      5100   595.27212     -54674.24      -736.72372      207.84553     -798.53677      61.508613      61.562199      62.431546    
      5200   594.54721     -54702.965     -837.9605      -450.80868     -582.17064    unfix ann

print '=== Phase 2b: Cooling 600.0K -> 300.0K ==='
=== Phase 2b: Cooling 600.0K -> 300.0K ===
fix cool all npt temp 600.0 300.0 0.1 x 0.0 0.0 1.0 y 0.0 0.0 1.0
run 5000
Per MPI rank memory allocation (min/avg/max) = 4.463 | 5.061 | 5.658 Mbytes
   Step          Temp          PotEng         Press           Pxx            Pyy             Lx             Ly             Lz      
      5000   601.00983     -54683.921     -581.42729     -308.78191      189.87083      61.542969      61.476612      62.160669    
      5100   595.27212     -54674.24      -736.72372      207.84553     -798.53677      61.508613      61.562199      62.431546    
      5200   594.54721     -54702.965     -837.9605      -450.80868     -582.17064      61.590325      61.568883      62.85136     
      5300   583.78539     -54709.969      797.29519      48.05738       1154.815       61.666076      61.581157      62.180384    
      5400   578.58961     -54722.925     -224.4874      -10.166967     -1257.4025      61.69672       61.773294      61.76517     
      5500   572.82697     -54736.662      947.52665     -201.30551      785.22938      61.791928      61.701583      62.019452    
      5600   564.94632     -54740.808      886.7975       416.72151     -28.902062      61.784923      61.789061      62.179336    
      5700   567.31581     -54776.822      336.32591     -117.22669     -60.869555      61.756852      61.780359      62.106771    
      5800   554.88466     -54784.733      740.25749      274.87257      580.00306      61.745883      61.725373      61.282793    
      5900   545.14208     -54797.754      87.713934     -205.77541     -135.01637      61.728312      61.744249      61.697279    
      6000   546.67374     -54833.353      440.08049     -43.646025      51.057666      61.7146        61.698492      62.147288    
      6100   533.11665     -54831.828      494.60091      275.16005     -183.30183      61.701279      61.742072      61.706932    
      6200   525.74085     -54842.456      866.0927       423.3946       334.80634      61.698669      61.703473      62.472498    
      6300   525.21263     -54862.449      7.5081787     -942.9373       189.7428       61.709869      61.617049      61.60782     
      6400   519.81364     -54878.44      -8.8112496      1202.0039     -1272.865       61.528676      61.679815      61.846016    
      6500   514.82356     -54899.382      249.78403     -873.25991      1842.0539      61.595292      61.418715      62.590507    
      6600   504.03467     -54906.271     -889.08278      108.2382      -1113.2017      61.489878      61.500705      62.393408    
      6700   504.45341     -54932.764      161.4368       469.62514      765.24707      61.443124      61.403396      62.300888    
      6800   493.14804     -54935.423     -1003.9997     -600.0792      -858.423        61.465279      61.440719      62.897454    
      6900   487.59245     -54949.302      425.12796      770.26282      372.49118      61.411757      61.423667      62.254308    
      7000   483.10667     -54962.135     -644.70179     -484.79447     -418.63526      61.463055      61.432777      61.778912    
      7100   476.60635     -54976.899      50.737383      43.318826      525.79356      61.416823      61.390432      61.570298    
      7200   470.69404     -54996.189      811.15349        7800   439.24696     -55097.823     -193.80767     -304.36282     -712.44301      61.456398      61.47902       60.946048    
      7900   430.14068     -55108.212     -335.69542     -533.61372     -590.40125      61.475198      61.448462      60.971141    
      8000   423.67301     -55125.8        519.60558      388.44377      419.49772      61.421405      61.435518      60.841547    
      8100   416.76923     -55138.546      280.05798      212.59293      66.763398      61.432791      61.427597      60.969805    
      8200   410.8713      -55156.295     -333.73097     -846.67383     -290.24541      61.485037      61.416878      62.217097    
      8300   403.47709     -55167.444      705.50621      872.98969     -87.578329      61 439.24696     -55097.823     -193.80767     -304.36282     -712.44301      61.456398      61.47902       60.946048    
      7900   430.14068     -55108.212     -335.69542     -533.61372     -590.40125      61.475198      61.448462      60.971141    
      8000   423.67301     -55125.8        519.60558      388.44377      419.49772      61.421405      61.435518      60.841547    
      8100   416.76923     -55138.546      280.05798      212.59293      66.763398      61.432791      61.427597      60.969805    
      8200   410.8713      -55156.295     -333.73097     -846.67383     -290.24541      61.485037      61.416878      62.217097    
      8300   403.47709     -55167.444      705.50621      872.98969     -87.578329      61.412451      61.45114       61.629639    
      8400   399.40181     -55183.813      524.8847      -153.61463      510.82477      61.436633      61.403362      61.929513    
      8500   392.75552     -55194.994     -334.78673     -300.4798      -715.66088      61.405269      61.426443      62.263541    
      8600   390.29664     -55216.645      457.48797      50.245392      791.74626      61.377108      61.313297      61.726118    
      8700   381.36068     -55225.57      -421.6204       78.757953     -631.47774      61.300817      61.350499      61.846851    
      8800   377.12389     -55243.296      29.458264      485.29081      149.67199      61.272759      61.291084      62.268581    
      8900   369.07237     -55253.634      211.86719     -130.22966      928.28392      61.308628      61.24654       61.951973    
      9000   360.77961     -55262.868     -528.35019      492.66994     -1201.8728      61.23298       61.353353      61.97979     
      9100   355.882       -55278.503      349.19609     -218.26417      1168.0475      61.307475      61.221083      61.787202    
      9200   353.22351     -55299.51      -534.39038     -172.09697     -662.40254      61.241335      61.300998      61.629495    
      9300   345.69016     -55310.675      6.4098947      419.69353     -26.240665      61.218866      61.255694      61.887574    
      9400   340.25267     -55327.463     -292.23891     -461.16628      610.38049      61.281159      61.194021      62.019902    
      9500   332.66446     -55339.838     -370.36549      630.00691     -823.95841      61.19556       61.283522      62.040984    
      9600   328.858       -55358.871      219.63039     -321.16873      768.69721      61.259711      61.21577       62.060714    
      9700   320.1133      -55368.316     -132.71657     -254.88003     -359.447        61.258734      61.281466      61.802571    
      9800   316.34492     -55385.888      118.99543     -78.588631     -193.38026      61.286807      61.28373       61.349286    
      9900   309.07148     -55397.024      874.54004      528.80882      990.85819      61.270855      61.238983      61.597551    
     10000   301.90983     -55408.754     -895.06921     -770.49902     -1315.4492      61.261615      61.304487      61.694433
Nlocal:        4101.75 ave        4902 max        3278 min
Histogram: 2 0 0 0 0 0 0 0 0 2
Nghost:         6306.5 ave        6525 max        6073 min
Histogram: 2 0 0 0 0 0 0 0 0 2
Neighs:         380906 ave      529251 max      230245 min
Histogram: 2 0 0 0 0 0 0 0 0 2

Total # of neighbors = 1523622
Ave neighs/atom = 92.864143
Neighbor list builds = 137
Dangerous builds = 0
=== Phase 3: Define Grips ===
1728 atoms in group bottom
882 atoms in group top
13797 atoms in group mobile
Bottom grip: 1728 atoms
Top grip:    882 atoms
Mobile:      13797 atoms
=== Phase 4: Equilibration with Grips ===
Setting up Verlet run ...
  Unit style    : metal
  Current step  : 0
  Time step     : 0.002
Per MPI rank memory allocation (min/avg/max) = 4.463 | 5.061 | 5.658 Mbytes
   Step          Temp          PotEng         Press           Pxx            Pyy             Lx             Ly             Lz      
         0   254.84655     -55408.754     -1359.0643     -1232.1483     -1770.4689      61.261615      61.304487      61.517125    
       100   272.00332     -55375.8       -901.67709     -1384.2926     -753.16146unfix cool

# 焼きなまし後の座標を基準にグリップ領域を定義
print '=== Phase 3: Define Grips ==='
=== Phase 3: Define Grips ===
variable zmin equal bound(all,zmin)
variable zmax equal bound(all,zmax)
variable grip_thick equal 5.0
variable zlo_grip equal ${zmin}+${grip_thick}
variable zlo_grip equal 1.44540945564128+${grip_thick}
variable zlo_grip equal 1.44540945564128+5
variable zhi_grip equal ${zmax}-${grip_thick}
variable zhi_grip equal 62.9497880525239-${grip_thick}
variable zhi_grip equal 62.9497880525239-5

region rgn_bot block INF INF INF INF INF ${zlo_grip}
region rgn_bot block INF INF INF INF INF 6.44540945564128
region rgn_top block INF INF INF INF ${zhi_grip} INF
region rgn_top block INF INF INF INF 57.9497880525239 INF
group bottom region rgn_bot
1728 atoms in group bottom
group top region rgn_top
882 atoms in group top
group mobile subtract all bottom top
13797 atoms in group mobile

print 'Bottom grip: $(count(bottom)) atoms'
Bottom grip: 1728 atoms
print 'Top grip:    $(count(top)) atoms'
Top grip:    882 atoms
print 'Mobile:      $(count(mobile)) atoms'
Mobile:      13797 atoms

print '=== Phase 4: Equilibration with Grips ==='
=== Phase 4: Equilibration with Grips ===
reset_timestep 0
velocity bottom set 0.0 0.0 0.0
velocity top set 0.0 0.0 0.0
# グリップ: nve（時間積分）+ setforce 0（力ゼロ）→ 等速運動
fix nve_bot bottom nve
fix nve_top top nve
fix freeze_bot bottom setforce 0.0 0.0 0.0
fix freeze_top top setforce 0.0 0.0 0.0
fix eq mobile npt temp 300.0 300.0 0.1 x 0.0 0.0 1.0 y 0.0 0.0 1.0
run 5000
Per MPI rank memory allocation (min/avg/max) = 4.463 | 5.061 | 5.658 Mbytes
   Step          Temp          PotEng         Press           Pxx            Pyy             Lx             Ly             Lz      
         0   254.84655     -55408.754     -1359.0643     -1232.1483     -1770.4689      61.261615      61.304487      61.517125    
       100   272.00332     -55375.8       -901.67709     -1384.2926     -753.16146      61.320299      6      1700   299.36874     -55304.614      179.18256     -624.2966       881.93906      61.359904      61.299871      61.517125    
      1800   299.6584      -55311.569     -36.326226      515.24331     -845.2637       61.27977       61.397027      61.517125    
      1900   299.87889     -55301.464     -185.25375     -931.11647      29.892779      61.363668      61.335832      61.517125    
      2000   302.28105     -55307.258     -181.20264     -550.25071     -387.04987      61.356135      61.345327      61.517125    
      2100   300.65611     -55308.586      362.66833      470.57442     -265.80662      61.315081      61.351578      61.517125    
      2200   300.39202     -55308.624      646.59346      14.019052      745.74248      61.350309      61.30861       61.517125    
      2300   300.26645     -55311.288      292.94729      536.65947     -68.73205       61.32303       61.336618      61.517125    
      2400   302.80969     -55307.308     -111.50666     -327.90313     -170.77631      61.342525      61.337274      61.517125    
      2500   302.45244     -55307.91      -49.912176     -99.499516     -150.959        61.328102      61.336856      61.517125    
      2600   296.50506     -55305.776      201.11326      508.00823     -75.934511      61.314895      61.337652      61.517125    
      2700   301.33097     -55303.319      259.28708     -115.31281      424.3387       61.339368      61.310255      61.517125    
      2800   299.14877     -55303.304      356.97872      372.1921       386.12999      61.309148      61.331537      61.517125    
      2900   297.88235     -55305.381      285.39549      320.63149     -116.31119      61.31412       61.337244      61.517125    
      3000   302.53961     -55312.863      73.563364     -120.48346      88.484101      61.329054      61.33032       61.517125    
      3100   301.93791     -55301.219      21.287523     -38.649129     -380.94447      61.317678      61.369649      61.517125    
      3200   298.45508     -55308.27      -7.7338885     -190.12576     -242.49882    624.2966       881.93906      61.359904      61.299871      61.517125    
      1800   299.6584      -55311.569     -36.326226      515.24331     -845.2637       61.27977       61.397027      61.517125    
      1900   299.87889     -55301.464     -185.25375     -931.11647      29.892779      61.363668      61.335832      61.517125    
      2000   302.28105     -55307.258     -181.20264     -550.25071     -387.04987      61.356135      61.345327      61.517125    
      2100   300.65611     -55308.586      362.66833      470.57442     -265.80662      61.315081      61.351578      61.517125    
      2200   300.39202     -55308.624      646.59346      14.019052      745.74248      61.350309      61.30861       61.517125    
      2300   300.26645     -55311.288      292.94729      536.65947     -68.73205       61.32303       61.336618      61.517125    
      2400   302.80969     -55307.308     -111.50666     -327.90313     -170.77631      61.342525      61.337274      61.517125    
      2500   302.45244     -55307.91      -49.912176     -99.499516     -150.959        61.328102      61.336856      61.517125    
      2600   296.50506     -55305.776      201.11326      508.00823     -75.934511      61.314895      61.337652      61.517125    
      2700   301.33097     -55303.319      259.28708     -115.31281      424.3387       61.339368      61.310255      61.517125    
      2800   299.14877     -55303.304      356.97872      372.1921       386.12999      61.309148      61.331537      61.517125    
      2900   297.88235     -55305.381      285.39549      320.63149     -116.31119      61.31412       61.337244      61.517125    
      3000   302.53961     -55312.863      73.563364     -120.48346      88.484101      61.329054      61.33032       61.517125    
      3100   301.93791     -55301.219      21.287523     -38.649129     -380.94447      61.317678      61.369649      61.517125    
      3200   298.45508     -55308.27      -7.7338885     -190.12576     -242.49882      61.339983      6      4800   302.11624     -55309.64      -290.13444     -750.5842      -242.71486      61.354777      61.33365       61.517125    
      4900   300.58059     -55303.565     -518.85876     -798.3762      -648.18583      61.367838      61.343509      61.517125    
      5000   297.724       -55307.7        249.91082      338.70743     -167.36741      61.30508       61.339133      61.517125    
Loop time of 52.6573 on 4 procs for 5000 steps with 16407 atoms

Performance: 16.408 ns/day, 1.463 hours/ns, 94.954 timesteps/s, 1.558 Matom-step/s
104.6% CPU use with 4 MPI tasks x 1 OpenMP threads

MPI task timing breakdown:
Section |  min time  |  avg time  |  max time  |%varavg| %total
---------------------------------------------------------------
Pair    | 34.98      | 41.936     | 49.12      | 107.1 | 79.64
Neigh   | 0.4319     | 0.67255    | 0.91615    |  28.9 |  1.28
Comm    | 1.6796     | 9.0995     | 16.295     | 238.0 | 17.28
Output  | 0.0023707  | 0.0028718  | 0.0042547  |   1.5 |  0.01
Modify  | 0.75858    | 0.80085    | 0.84785    |   4.7 |  1.52
Other   |            | 0.1455     |            |       |  0.28

Nlocal:        4101.75 ave        4908 max        3280 min
Histogram: 2 0 0 0 0 0 0 0 0 2
Nghost:        6312.25 ave        6510 max        6117 min
Histogram: 2 0 0 0 0 0 0 0 0 2
Neighs:         380662 ave      529448 max      231022 min
Histogram: 2 0 0 0 0 0 0 0 0 2

Total # of neighbors = 1522648
Ave neighs/atom = 92.804778
Neighbor list builds = 102
Dangerous builds = 0
=== Phase 5: Tensile Test ===
Initial grip distance L0 = 56.6916181984677 Ang
Pull velocity = 0.113383236396935 Ang/ps (erate=0.002/ps)
Setting up Verlet run ...
  Unit style    : metal
  Current step  : 0
  Time step     : 0.002
Per MPI rank memory allocation (min/avg/max) = 6.035 | 6.597 | 7.158 Mbytes
   Step          Temp         v_strain     v_stress_zz        Pxx            Pyy             Lx             Ly           v_Lmat    
         0   297.73148     -7.5200824e-16 -0.062786267    338.70743     -167.36741      61.30508       61.339133      56.691618    
       100   278.43639      0.0004         0.13509539    -1652.477      -1742.9968      61.30508       61.339133      56.714295    
       200   257.36316      0.0008         0.31508237    -2816.9534     -3238.4727      61.30508       61.339133      56.736971    
       300   250.13446      0.0012         0.42213355    -3932.2325     -4421.3042      61.30508       61.339133      56.759648    
       400   253.45939      0.0016         0.41923185    -3677.3099     -4132.5647      61.30508       61.339133      56.782325    
       500   255.77145      0.002          0.39033169    -3840.7976     -4118.1646      61.30508       61.339133      56.805001    
       600   248.92255      0.0024         0.46501397    -4199.3432     -4526.3053      61.30508       61.339133      56.827678    
       700   250.49952      0.0028         0.48840467    -4446.3406     -5050.3782      61.30508       61.339133      56.850355    
       800   252.79752      0.0032         0.51449648    -4523.1325     -5098.6952      61.30508       61.339133      56.873031    
       900   251.6404       0.0036         0.57988643    -5310.0341     -5487.7854      61.30508       61.339133      56.895708    
      1000   250.9447       0.004          0.65947916    -5616.7622     -5995.7959      61.30508       61.339133      56.918385    
      1100   253.68791      0.0044         0.70458769    -5720.0937     -6283.6745      61.30508       61.339133      unfix eq

print '=== Phase 5: Tensile Test ==='
=== Phase 5: Tensile Test ===
reset_timestep 0

# グリップ重心間距離で初期材料長を定義
variable zcm_bot equal xcm(bottom,z)
variable zcm_top equal xcm(top,z)
variable tmp_L equal v_zcm_top-v_zcm_bot
variable L0 equal ${tmp_L}
variable L0 equal 56.6916181984677
print 'Initial grip distance L0 = ${L0} Ang'
Initial grip distance L0 = 56.6916181984677 Ang

# 引っ張り速度 = erate × L0
variable vpull equal 0.002*v_L0
velocity top set 0.0 0.0 ${vpull}
velocity top set 0.0      1600   252.8197       0.0064         0.84842191    -7138.1599     -7577.8355      61.30508       61.339133      57.054445    
      1700   250.6909       0.0068         0.86711775    -7466.6281     -7540.449       61.30508       61.339133      57.077121    
      1800   253.94231      0.0072         0.8916302     -7370.2946     -7724.689       61.30508       61.339133      57.099798    
      1900   252.4711       0.0076         0.94350471    -7829.4916     -8063.4468      61.30508       61.339133      57.122474    
      2000   251.55073      0.008          1.0083526     -8117.2318     -8708.4505      61.30508       61.339133      57.145151    
      2100   253.8561       0.0084         1.0508079     -8397.4999     -8756.1487      61.30508       61.339133      57.167828    
      2200   252.46054      0.0088         1.0850459     -8923.3513     -9337.7911      61.30508       61.339133      57.190504    
      2300   249.61049      0.0092         1.1700278     -9371.4355     -9778.5244      61.30508       61.339133      57.213181    
      2400   251.67044      0.0096         1.1891797     -9385.6314     -9895.3739      61.30508       61.339133      57.235858    
      2500   251.66603      0.01           1.1963497     -9311.7298     -10217.921      61.30508       61.339133      57.258534    
      2600   251.0771       0.0104         1.239194      -9954.739      -10391.574      61.30508       61.339133      57.281211    
      2700   251.85292      0.0108         1.2694377     -9883.2845     -10535.193      61.30508       61.339133      57.303888    
      2800   254.20454      0.0112         1.2916351     -10344.047     -10702.354      61.30508       61.339133      57.326564    
      2900   251.74917      0.0116         1.3119207     -10411.561     -10922.092      61.30508       61.339133      57.349241    
      3000   251.85698      0.012          1.3434049     -10737.983     -11336.971      61.30508       61.339133      57.371918    
      3100   252.45146      0.0124         1.3486938     -10947.244     -11150.58       61.30508       61.339133      57.394594    
      3200   252.40556      0.0128         1.4141351     -11052.869     -11669.718      61.30508       61.339133      57.417271    
      3300   248.30129      0.0132         1.4776448     -11878.203     -12071.234      61.30508       61.339133      57.439948    
      3400   251.01079      0.0136         1.5032861     -11880.957     -12044.16       61.30508       61.339133      57.462624    
      3500   251.19529      0.014          1.5316606     -12136.546     -12471.081      61.30508       61.339133      57.485301    
      3600   255.39022      0.0144         1.6054551     -12710.564     -12965.784      61.30508       61.339133      57.507978    
      3700   249.13507      0.0148         1.5998342     -12577.227     -13179.573      61.30508       61.339133      57.530654    
      3800   252.21429      0.0152         1.6407411     -13059.053     -13441.642      61.30508       61.339133      57.553331    
      3900   255.07656      0.0156         1.6820811     -13107.61      -13332.285      61.30508       61.339133      57.576007    
      4000   248.7022       0.016          1.6770098     -13197.945     -13765.639      61.30508       61.339133      57.598684    
      4100   251.27864      0.0164         1.7201791     -13604.071     -14193.43       61.30508       61.339133      57.621361    
      4200   254.2198       0.0168         1.7435024     -13353.816     -14172.457      61.30508       61.339133      57.6.84842191    -7138.1599     -7577.8355      61.30508       61.339133      57.054445    
      1700   250.6909       0.0068         0.86711775    -7466.6281     -7540.449       61.30508       61.339133      57.077121    
      1800   253.94231      0.0072         0.8916302     -7370.2946     -7724.689       61.30508       61.339133      57.099798    
      1900   252.4711       0.0076         0.94350471    -7829.4916     -8063.4468      61.30508       61.339133      57.122474    
      2000   251.55073      0.008          1.0083526        4700   251.93605      0.0188         1.9559277     -15432.83      -15824.957      61.30508       61.339133      57.757421    
      4800   250.63777      0.0192         1.9750217     -15437.557     -15789.4        61.30508       61.339133      57.780097    
      4900   254.93822      0.0196         2.0379616     -15671.879     -16379.445      61.30508       61.339133      57.802774    
      5000   253.4053       0.02           2.0653542     -16103.725     -16630.432      61.30508       61.339133      57.825451    
      5100   252.40633      0.0204         2.0795556     -16151.142     -16654.568      61.30508       61.339133      57.848127    
      5200   252.58476      0.0208         2.0933997     -16106.963     -16525.515      61.30508       61.339133      57.870804    
      5300   253.72723      0.0212         2.1015179     -16339.576     -16857.879      61.30508       61.339133      57.893481    
      5400   251.13352      0.0216         2.1521148     -16503.851     -16926.036      61.30508       61.339133      57.916157    
      5500   253.71754      0.022          2.133253      -16517.988     -17251.498      61.30508       61.339133      57.938834    
      5600   251.37827      0.0224         2.1761489     -16698.818     -17375.755      61.30508       61.339133      57.96151     
      5700   249.52584      0.0228         2.2492635     -17644.924     -17888.261      61.30508       61.339133      57.984187    
      5800   251.17349      0.0232         2.2722988     -17418.702     -18144.123      61.30508       61.339133      58.006864    
      5900   253.24671      0.0236         2.2776984     -17844.184     -18393.494      61.30508       61.339133      58.02954     
      6000   249.28764      0.024          2.3307991     -18214.947     -18588.116      61.30508       61.339133      58.052217    
      6100   252.08934      0.0244         2.3989499     -18185.268     -18862.525      61.30508       61.339133      58.074894    
      6200   254.46036      0.0248         2.3761763     -18420.149     -19224.726      61.30508       61.339133      58.09757     
      6300   253.03894      0.0252         2.4562141     -18804.835     -19549.448      61.30508       61.339133      58.120247    
      6400   250.33588      0.0256         2.446667      -18890.642     -19328.16       61.30508       61.339133      58.142924    
      6500   254.89085      0.026          2.4597873     -19182.371     -19756.767      61.30508       61.339133      58.1656      
      6600   250.25522      0.0264         2.4993972     -19069.776     -19733.812      61.30508       61.339133      58.188277    
      6700   253.3484       0.0268         2.5154777     -19188.678     -19993.331      61.30508       61.339133      58.210954    
      6800   251.93221      0.0272         2.5557519     -19294.162     -20120.747      61.30508       61.339133      58.23363     
      6900   250.78742      0.0276         2.5999303     -20114.262     -20638.356      61.30508       61.339133      58.256307    
      7000   252.02269      0.028          2.6271022     -20184.05      -20851.56       61.30508       61.339133      58.278984    
      7100   253.93226      0.0284         2.6743893     -20293.641     -20743.292      61.30508       61.339133      58.30166     
      7200   249.90175      0.0288         2.7220226     -20905.361     -21533.523      61.30508       61.339133      58.324337    
      7300   249.69228      0.0292         2.7597657     -21004.934     -21434.102      61.30508       61.339133      58.347019277     -15432.83      -15824.957      61.30508       61.339133      57.757421    
      4800   250.63777      0.0192         1.9750217     -15437.557     -15789.4        61.30508       61.339133      57.780097    
      4900   254.93822      0.0196         2.0379616     -15671.879     -16379.445      61.30508       61.339133      57.802774    
      5000   253.4053       0.02           2.0653542     -16103.725     -16630.432      61.30508       61.339133      57.825451    
      5100   252.40633      0.0204         2.0795556        7800   247.19808      0.0312         2.8108363     -21595.254     -22199.343      61.30508       61.339133      58.460397    
      7900   253.45222      0.0316         2.8763654     -21925.914     -22169.948      61.30508       61.339133      58.483073    
      8000   253.01137      0.032          2.900639      -21986.839     -22590.72       61.30508       61.339133      58.50575     
      8100   252.44848      0.0324         2.9142201     -21943.322     -22766.372      61.30508       61.339133      58.528427    
      8200   248.66172      0.0328         2.9317231     -22078.493     -22546.942      61.30508       61.339133      58.551103    
      8300   254.96951      0.0332         2.9914129     -22486.38      -23170.199      61.30508       61.339133      58.57378     
      8400   253.97016      0.0336         3.0261251     -22702.169     -23543.842      61.30508       61.339133      58.596457    
      8500   250.12015      0.034          3.0809907     -23175.517     -23789.853      61.30508       61.339133      58.619133    
      8600   252.55639      0.0344         3.1109324     -23316.595     -23828.943      61.30508       61.339133      58.64181     
      8700   251.52241      0.0348         3.1250428     -23535.937     -24066.122      61.30508       61.339133      58.664487    
      8800   252.27762      0.0352         3.1826451     -23823.725     -24221.5        61.30508       61.339133      58.687163    
      8900   252.49406      0.0356         3.1860629     -23949.347     -24618.794      61.30508       61.339133      58.70984     
      9000   255.19273      0.036          3.2099005     -24203.87      -24499.915      61.30508       61.339133      58.732516    
      9100   250.38648      0.0364         3.2236014     -24329.84      -24611.056      61.30508       61.339133      58.755193    
      9200   254.59739      0.0368         3.2395473     -24313.906     -24843.359      61.30508       61.339133      58.77787     
      9300   251.81873      0.0372         3.2667366     -24575.415     -25058.124      61.30508       61.339133      58.800546    
      9400   250.99004      0.0376         3.3017281     -24737.567     -25356.195      61.30508       61.339133      58.823223    
      9500   252.85997      0.038          3.3172526     -24999.071     -25548.678      61.30508       61.339133      58.8459      
      9600   256.28814      0.0384         3.3319839     -25148.569     -25467.783      61.30508       61.339133      58.868576    
      9700   250.30435      0.0388         3.4090099     -25527.563     -26119.61       61.30508       61.339133      58.891253    
      9800   252.68349      0.0392         3.4264504     -25501.3       -26252.291      61.30508       61.339133      58.91393     
      9900   253.00641      0.0396         3.4556879     -26003.9       -26416.285      61.30508       61.339133      58.936606    
     10000   247.45464      0.04           3.4565666     -26120.031     -26260.801      61.30508       61.339133      58.959283    
     10100   251.41527      0.0404         3.4954091     -26137.633     -26570.494      61.30508       61.339133      58.98196     
     10200   251.05829      0.0408         3.5576701     -26476.276     -26639.612      61.30508       61.339133      59.004636    
     10300   253.22841      0.0412         3.5563527     -26704.682     -27095.984      61.30508       61.339133      59.027313    
     10400   251.32358      0.0416         3.5723895     -26539.948     -27073.658      61.30508       61.339133      59.04999         -21595.254     -22199.343      61.30508       61.339133      58.460397    
      7900   253.45222      0.0316         2.8763654     -21925.914     -22169.948      61.30508       61.339133      58.483073    
      8000   253.01137      0.032          2.900639      -21986.839     -22590.72       61.30508       61.339133      58.50575     
      8100   252.44848      0.0324         2.9142201     -21943.322     -22766.372      61.30508       61.339133      58.528427    
      8200   248.66172      0.0328         2.9317231       10900   252.734        0.0436         3.6612878     -27114.441     -27685.919      61.30508       61.339133      59.163373    
     11000   251.33415      0.044          3.7754486     -27904.737     -28410.844      61.30508       61.339133      59.186049    
     11100   252.39837      0.0444         3.7563152     -27922.957     -28176.742      61.30508       61.339133      59.208726    
     11200   252.69071      0.0448         3.7742159     -28140.462     -28514.284      61.30508       61.339133      59.231403    
     11300   250.67825      0.0452         3.8289078     -28303.667     -28655.581      61.30508       61.339133      59.254079    
     11400   251.74409      0.0456         3.7948968     -28143.579     -28561.042      61.30508       61.339133      59.276756    
     11500   253.81806      0.046          3.8427524     -28366.368     -28779.835      61.30508       61.339133      59.299433    
     11600   248.11174      0.0464         3.8543925     -28775.549     -29145.898      61.30508       61.339133      59.322109    
     11700   252.30097      0.0468         3.8437245     -28766.27      -28817.705      61.30508       61.339133      59.344786    
     11800   253.73976      0.0472         3.9067823     -29097.675     -29359.22       61.30508       61.339133      59.367463    
     11900   253.7531       0.0476         3.9043109     -28561.631     -29575.639      61.30508       61.339133      59.390139    
     12000   254.95668      0.048          3.9311885     -28917.466     -29656.295      61.30508       61.339133      59.412816    
     12100   252.71044      0.0484         3.9732932     -29493.767     -29699.199      61.30508       61.339133      59.435493    
     12200   250.17475      0.0488         3.9506811     -29246.895     -29605.894      61.30508       61.339133      59.458169    
     12300   254.00914      0.0492         4.0032694     -29478.65      -29795.977      61.30508       61.339133      59.480846    
     12400   252.33217      0.0496         4.0720735     -30068.186     -30595.277      61.30508       61.339133      59.503522    
     12500   250.59497      0.05           4.0760866     -30191.257     -30554.928      61.30508       61.339133      59.526199    
     12600   253.62013      0.0504         4.0955073     -30279.123     -30751.566      61.30508       61.339133      59.548876    
     12700   251.64274      0.0508         4.0994127     -30166.911     -30927.75       61.30508       61.339133      59.571552    
     12800   249.9976       0.0512         4.15452       -30660.267     -30948.027      61.30508       61.339133      59.594229    
     12900   253.56154      0.0516         4.1445907     -30650.217     -30994.546      61.30508       61.339133      59.616906    
     13000   254.84288      0.052          4.151342      -30517.541     -31210.498      61.30508       61.339133      59.639582    
     13100   251.27537      0.0524         4.1830763     -31050.512     -31336.302      61.30508       61.339133      59.662259    
     13200   252.68806      0.0528         4.1751385     -30923.871     -31370.222      61.30508       61.339133      59.684936    
     13300   254.04338      0.0532         4.1819029     -30877.182     -31523.994      61.30508       61.339133      59.707612    
     13400   251.63084      0.0536         4.2236778     -31288.314     -31560.782      61.30508       61.339133      59.730289    
     13500   248.78061      0.054          4.2482092     -31230.998     -31720.071      61.30508       61.339133      59.752966    
   -27114.441     -27685.919      61.30508       61.339133      59.163373    
     11000   251.33415      0.044          3.7754486     -27904.737     -28410.844      61.30508       61.339133      59.186049    
     11100   252.39837      0.0444         3.7563152     -27922.957     -28176.742      61.30508       61.339133      59.208726    
     11200   252.69071      0.0448         3.7742159     -28140.462     -28514.284      61.30508       61.339133      59.231403    
     11300   250.67825      0.0452         3.8289078       14000   254.42761      0.056          4.2950192     -31582.276     -32122.071      61.30508       61.339133      59.866349    
     14100   253.6819       0.0564         4.3015856     -31603.187     -32274.672      61.30508       61.339133      59.889025    
     14200   251.13906      0.0568         4.3418593     -31913.921     -32733.237      61.30508       61.339133      59.911702    
     14300   252.77865      0.0572         4.2727421     -31455.164     -32026.16       61.30508       61.339133      59.934379    
     14400   252.75149      0.0576         4.2983003     -31570.534     -32156.467      61.30508       61.339133      59.957055    
     14500   249.80626      0.058          4.3262556     -31714.358     -32335.94       61.30508       61.339133      59.979732    
     14600   251.65946      0.0584         4.3195048     -31849.333     -32362.967      61.30508       61.339133      60.002409    
     14700   251.50176      0.0588         4.3895764     -32190.312     -32937.704      61.30508       61.339133      60.025085    
     14800   254.16554      0.0592         4.4252899     -32506.782     -33290.348      61.30508       61.339133      60.047762    
     14900   254.93046      0.0596         4.4090971     -32498.342     -32927.892      61.30508       61.339133      60.070439    
     15000   251.09902      0.06           4.4495573     -32548.738     -33132.008      61.30508       61.339133      60.093115    
     15100   251.76332      0.0604         4.4634952     -32749.204     -33388.289      61.30508       61.339133      60.115792    
     15200   253.07572      0.0608         4.4536468     -32617.263     -33309.07       61.30508       61.339133      60.138469    
     15300   253.33332      0.0612         4.4465706     -32877.535     -33429.137      61.30508       61.339133      60.161145    
     15400   252.29486      0.0616         4.4703218     -32731.252     -33344.166      61.30508       61.339133      60.183822    
     15500   255.51939      0.062          4.4648082     -32783.821     -33299.787      61.30508       61.339133      60.206499    
     15600   254.45138      0.0624         4.4220962     -32366.575     -32781.983      61.30508       61.339133      60.229175    
     15700   250.79839      0.0628         4.4430091     -32783.429     -32992.239      61.30508       61.339133      60.251852    
     15800   252.36717      0.0632         4.4437061     -32879.113     -33066.126      61.30508       61.339133      60.274528    
     15900   254.01022      0.0636         4.4375128     -32927.282     -32975.969      61.30508       61.339133      60.297205    
     16000   253.02759      0.064          4.4005356     -32365.852     -32703.213      61.30508       61.339133      60.319882    
     16100   250.99507      0.0644         4.3905896     -32381.491     -32607.791      61.30508       61.339133      60.342558    
     16200   249.62314      0.0648         4.380581      -32388.055     -32661.029      61.30508       61.339133      60.365235    
     16300   253.48659      0.0652         4.3617736     -32280.377     -32474.803      61.30508       61.339133      60.387912    
     16400   253.73314      0.0656         4.4246715     -32124.224     -32487.765      61.30508       61.339133      60.410588    
     16500   252.33017      0.066          4.3513587     -31778.064     -32018.107      61.30508       61.339133      60.433265    
     16600   251.55542      0.0664         4.3039353     -31581.339     -31545.856      61.30508       61.339133      60.455942    
     1582.276     -32122.071      61.30508       61.339133      59.866349    
     14100   253.6819       0.0564         4.3015856     -31603.187     -32274.672      61.30508       61.339133      59.889025    
     14200   251.13906      0.0568         4.3418593     -31913.921     -32733.237      61.30508       61.339133      59.911702    
     14300   252.77865      0.0572         4.2727421     -31455.164     -32026.16       61.30508       61.339133      59.934379    
     14400   252.75149      0.0576         4.2983003       17100   252.19869      0.0684         3.7811556     -27720.257     -27607.491      61.30508       61.339133      60.569325    
     17200   252.66286      0.0688         3.6297735     -26451.305     -26318.628      61.30508       61.339133      60.592002    
     17300   252.60552      0.0692         3.5539961     -25899.809     -25884.299      61.30508       61.339133      60.614678    
     17400   252.9359       0.0696         3.4394073     -25249.639     -24981.878      61.30508       61.339133      60.637355    
     17500   249.62889      0.07           3.3126353     -24305.43      -23918.543      61.30508       61.339133      60.660031    
     17600   253.79963      0.0704         3.2135052     -23499.877     -23398.787      61.30508       61.339133      60.682708    
     17700   251.45709      0.0708         3.1215481     -22888.19      -22717.489      61.30508       61.339133      60.705385    
     17800   254.45528      0.0712         3.0771067     -22377.794     -22501.626      61.30508       61.339133      60.728061    
     17900   254.88425      0.0716         2.8972691     -21236.413     -21244.307      61.30508       61.339133      60.750738    
     18000   251.74136      0.072          2.8010769     -20454.08      -20499.412      61.30508       61.339133      60.773415    
     18100   252.23412      0.0724         2.7100454     -19752.102     -20307.071      61.30508       61.339133      60.796091    
     18200   253.98289      0.0728         2.6620323     -19555.904     -19445.869      61.30508       61.339133      60.818768    
     18300   251.47089      0.0732         2.5435408     -18720.501     -18620.264      61.30508       61.339133      60.841445    
     18400   253.98956      0.0736         2.4722163     -18117.881     -18313.515      61.30508       61.339133      60.864121    
     18500   253.74324      0.074          2.4035149     -17664.864     -18092.85       61.30508       61.339133      60.886798    
     18600   249.18802      0.0744         2.3646296     -17590.142     -17863.667      61.30508       61.339133      60.909475    
     18700   255.77459      0.0748         2.2857007     -17151.83      -17505.807      61.30508       61.339133      60.932151    
     18800   251.32237      0.0752         2.2175849     -16577.125     -16942.582      61.30508       61.339133      60.954828    
     18900   252.37867      0.0756         2.1418825     -16330.586     -16371.85       61.30508       61.339133      60.977505    
     19000   251.78894      0.076          2.1026237     -16060.531     -15948.635      61.30508       61.339133      61.000181    
     19100   254.68828      0.0764         2.106526      -15737.835     -16107.676      61.30508       61.339133      61.022858    
     19200   252.61581      0.0768         2.0690015     -15434.809     -15515.664      61.30508       61.339133      61.045534    
     19300   251.01176      0.0772         2.0804213     -15650.71      -15888.11       61.30508       61.339133      61.068211    
     19400   251.87671      0.0776         1.9924137     -15285.522     -15639.374      61.30508       61.339133      61.090888    
     19500   252.79733      0.078          2.0339328     -15350.158     -15556.292      61.30508       61.339133      61.113564    
     19600   254.81323      0.0784         2.1000559     -16225.919     -16262.441      61.30508       61.339133      61.136241    
     19700   251.62079      0.0788         2.0470129     -15612.962     -15593.399      61.30508       61.339133      61.158918    
     19800257     -27607.491      61.30508       61.339133      60.569325    
     17200   252.66286      0.0688         3.6297735     -26451.305     -26318.628      61.30508       61.339133      60.592002    
     17300   252.60552      0.0692         3.5539961     -25899.809     -25884.299      61.30508       61.339133      60.614678    
     17400   252.9359       0.0696         3.4394073     -25249.639     -24981.878      61.30508       61.339133      60.637355    
     17500   249.62889      0.07           3.3126353       20200   253.39956      0.0808         2.0692522     -15744.056     -16015.82       61.30508       61.339133      61.272301    
     20300   251.47746      0.0812         2.0919485     -15865.01      -16182.749      61.30508       61.339133      61.294978    
     20400   248.62935      0.0816         2.0728062     -15762.955     -15951.818      61.30508       61.339133      61.317654    
     20500   254.57955      0.082          2.0546669     -15378.444     -15545.858      61.30508       61.339133      61.340331    
     20600   254.02149      0.0824         2.0233844     -15215.326     -15716.963      61.30508       61.339133      61.363008    
     20700   251.44205      0.0828         2.0106393     -15383.605     -15630.526      61.30508       61.339133      61.385684    
     20800   253.08727      0.0832         2.0201723     -15074.432     -15390.264      61.30508       61.339133      61.408361    
     20900   250.39204      0.0836         1.9901338     -15126.098     -15600.694      61.30508       61.339133      61.431037    
     21000   251.80645      0.084          1.9949512     -15054.766     -15446.618      61.30508       61.339133      61.453714    
     21100   251.25467      0.0844         2.0184199     -15069.695     -15529.966      61.30508       61.339133      61.476391    
     21200   250.85318      0.0848         2.0067858     -15213.015     -15446.485      61.30508       61.339133      61.499067    
     21300   252.70476      0.0852         1.9413838     -14395.899     -14629.284      61.30508       61.339133      61.521744    
     21400   251.9002       0.0856         1.9700451     -14517.234     -15172.429      61.30508       61.339133      61.544421    
     21500   254.35251      0.086          1.9630091     -14832.867     -14924.747      61.30508       61.339133      61.567097    
     21600   252.79553      0.0864         1.9159149     -14503.195     -14576.223      61.30508       61.339133      61.589774    
     21700   255.10669      0.0868         1.99492       -14851.015     -15126.621      61.30508       61.339133      61.612451    
     21800   252.50105      0.0872         2.0262888     -15443.339     -15419.582      61.30508       61.339133      61.635127    
     21900   250.3542       0.0876         2.0109981     -15098.41      -15394.951      61.30508       61.339133      61.657804    
     22000   254.14506      0.088          1.945368      -14192.538     -14543.92       61.30508       61.339133      61.680481    
     22100   252.86599      0.0884         1.9093169     -14209.965     -14141.683      61.30508       61.339133      61.703157    
     22200   251.54545      0.0888         1.8637329     -13737.77      -13789.001      61.30508       61.339133      61.725834    
     22300   252.65905      0.0892         1.8413547     -13958.293     -13661.716      61.30508       61.339133      61.748511    
     22400   253.03344      0.0896         1.8182285     -13769.632     -13792.502      61.30508       61.339133      61.771187    
     22500   252.35553      0.09           1.8540707     -14069.525     -14183.712      61.30508       61.339133      61.793864    
     22600   251.30666      0.0904         1.8500167     -14009.523     -14265.93       61.30508       61.339133      61.81654     
     22700   251.02323      0.0908         1.8902        -14125.55      -14335.954      61.30508       61.339133      61.839217    
     22800   254.6319       0.0912         1.8522797     -13599.694     -13721.725      61.30508       61.339133      61.861894    
     22900   2    -16015.82       61.30508       61.339133      61.272301    
     20300   251.47746      0.0812         2.0919485     -15865.01      -16182.749      61.30508       61.339133      61.294978    
     20400   248.62935      0.0816         2.0728062     -15762.955     -15951.818      61.30508       61.339133      61.317654    
     20500   254.57955      0.082          2.0546669     -15378.444     -15545.858      61.30508       61.339133      61.340331    
     20600   254.02149      0.0824         2.0233844       23300   251.84176      0.0932         1.7843574     -13371.64      -13765.036      61.30508       61.339133      61.975277    
     23400   253.28648      0.0936         1.79289       -13555.849     -13422.148      61.30508       61.339133      61.997954    
     23500   249.30434      0.094          1.7958449     -13531.621     -13417.742      61.30508       61.339133      62.02063     
     23600   254.96322      0.0944         1.7555796     -13071.327     -13226.904      61.30508       61.339133      62.043307    
     23700   253.17833      0.0948         1.7114329     -12657.032     -12826.848      61.30508       61.339133      62.065984    
     23800   250.06123      0.0952         1.7287769     -12545.269     -12798.225      61.30508       61.339133      62.08866     
     23900   252.51015      0.0956         1.6691084     -12478.236     -12612.604      61.30508       61.339133      62.111337    
     24000   252.98837      0.096          1.7247078     -12957.587     -12713.255      61.30508       61.339133      62.134014    
     24100   249.24339      0.0964         1.6859443     -12679.708     -13040.234      61.30508       61.339133      62.15669     
     24200   252.24672      0.0968         1.7351985     -13268.3       -13327.635      61.30508       61.339133      62.179367    
     24300   253.92168      0.0972         1.6877398     -12439.137     -12902.708      61.30508       61.339133      62.202043    
     24400   251.06021      0.0976         1.6713707     -12754.621     -12689.786      61.30508       61.339133      62.22472     
     24500   250.56246      0.098          1.6684994     -12520.09      -12748.439      61.30508       61.339133      62.247397    
     24600   250.82138      0.0984         1.6523605     -12187.636     -12471.128      61.30508       61.339133      62.270073    
     24700   254.27403      0.0988         1.6284063     -12297.795     -12267.711      61.30508       61.339133      62.29275     
     24800   249.49106      0.0992         1.6642952     -12748.365     -12566.227      61.30508       61.339133      62.315427    
     24900   252.50544      0.0996         1.6736122     -12587.386     -12633.687      61.30508       61.339133      62.338103    
     25000   254.58105      0.1            1.6722554     -12542.775     -12880.644      61.30508       61.339133      62.36078     
     25100   252.32871      0.1004         1.6706278     -12695.328     -12827.132      61.30508       61.339133      62.383457    
     25200   254.94125      0.1008         1.6185148     -12545.099     -12317.283      61.30508       61.339133      62.406133    
     25300   251.92713      0.1012         1.5700085     -11981.468     -11925.136      61.30508       61.339133      62.42881     
     25400   253.25463      0.1016         1.5117004     -11532.994     -11447.816      61.30508       61.339133      62.451487    
     25500   252.19459      0.102          1.4532079     -11432.225     -11447.999      61.30508       61.339133      62.474163    
     25600   252.76903      0.1024         1.4726465     -11156.454     -11523.069      61.30508       61.339133      62.49684     
     25700   250.75861      0.1028         1.4416025     -11244.884     -11524.451      61.30508       61.339133      62.519517    
     25800   251.63152      0.1032         1.4139226     -10906.935     -11008.572      61.30508       61.339133      62.542193    
     25900   253.55642      0.1036         1.4100778     -10836.981     -11258.12       61.30508       61.339133      62.56487     
     26000   248.0-13765.036      61.30508       61.339133      61.975277    
     23400   253.28648      0.0936         1.79289       -13555.849     -13422.148      61.30508       61.339133      61.997954    
     23500   249.30434      0.094          1.7958449     -13531.621     -13417.742      61.30508       61.339133      62.02063     
     23600   254.96322      0.0944         1.7555796     -13071.327     -13226.904      61.30508       61.339133      62.043307    
     23700   253.17833      0.0948         1.7114329       26400   250.46792      0.1056         1.387104      -11128.065     -10928.131      61.30508       61.339133      62.678253    
     26500   253.83587      0.106          1.3406444     -10401.866     -10485.244      61.30508       61.339133      62.70093     
     26600   252.08999      0.1064         1.355122      -10653.038     -10675.485      61.30508       61.339133      62.723606    
     26700   252.86541      0.1068         1.3652069     -10688.256     -10889.245      61.30508       61.339133      62.746283    
     26800   252.80274      0.1072         1.3051349     -10498.316     -10631.133      61.30508       61.339133      62.76896     
     26900   250.80801      0.1076         1.3052352     -10292.082     -10301.663      61.30508       61.339133      62.791636    
     27000   253.01562      0.108          1.3197065     -10413.375     -10262.083      61.30508       61.339133      62.814313    
     27100   255.96836      0.1084         1.2507451     -9970.2093     -9867.533       61.30508       61.339133      62.83699     
     27200   254.69802      0.1088         1.3395142     -10564.458     -10847.086      61.30508       61.339133      62.859666    
     27300   250.9928       0.1092         1.3485232     -10577.48      -10921.83       61.30508       61.339133      62.882343    
     27400   250.73315      0.1096         1.3598398     -10685.711     -10920.293      61.30508       61.339133      62.90502     
     27500   253.82694      0.11           1.3518433     -10758.346     -10916.248      61.30508       61.339133      62.927696    
     27600   252.94122      0.1104         1.3638873     -10617.263     -10635.917      61.30508       61.339133      62.950373    
     27700   251.46145      0.1108         1.3707015     -10659.911     -10808.847      61.30508       61.339133      62.973049    
     27800   248.20176      0.1112         1.2919049     -10036.918     -10093.115      61.30508       61.339133      62.995726    
     27900   253.49406      0.1116         1.3079553     -10153.266     -10293.911      61.30508       61.339133      63.018403    
     28000   253.85213      0.112          1.3177888     -10169.167     -10168.362      61.30508       61.339133      63.041079    
     28100   251.77001      0.1124         1.2736416     -10151.557     -10036.317      61.30508       61.339133      63.063756    
     28200   249.99545      0.1128         1.3116593     -10577.085     -10503.911      61.30508       61.339133      63.086433    
     28300   254.53866      0.1132         1.2939512     -10379.249     -10442.415      61.30508       61.339133      63.109109    
     28400   252.57875      0.1136         1.2532118     -9990.5422     -10098.582      61.30508       61.339133      63.131786    
     28500   251.74422      0.114          1.3062899     -10195.478     -10241.849      61.30508       61.339133      63.154463    
     28600   255.29171      0.1144         1.2388111     -9574.2136     -10041.971      61.30508       61.339133      63.177139    
     28700   255.21056      0.1148         1.2670572     -9746.5301     -9998.1046      61.30508       61.339133      63.199816    
     28800   251.46477      0.1152         1.2375346     -9917.9913     -9914.8795      61.30508       61.339133      63.222493    
     28900   250.3032       0.1156         1.3131217     -10446.422     -10899.207      61.30508       61.339133      63.245169    
     29000   252.48639      0.116          1.2670544     -10017.059     -10221.386      61.30508       61.339133      63.267846    
     29100   252.1587528.131      61.30508       61.339133      62.678253    
     26500   253.83587      0.106          1.3406444     -10401.866     -10485.244      61.30508       61.339133      62.70093     
     26600   252.08999      0.1064         1.355122      -10653.038     -10675.485      61.30508       61.339133      62.723606    
     26700   252.86541      0.1068         1.3652069     -10688.256     -10889.245      61.30508       61.339133      62.746283    
     26800   252.80274      0.1072         1.3051349       29500   250.87827      0.118          1.1961925     -9539.3911     -9743.192       61.30508       61.339133      63.381229    
     29600   254.98673      0.1184         1.1733599     -9346.1372     -9316.8518      61.30508       61.339133      63.403906    
     29700   255.13886      0.1188         1.2025162     -9816.7887     -9698.5316      61.30508       61.339133      63.426582    
     29800   249.64942      0.1192         1.2741835     -10152.541     -9976.3966      61.30508       61.339133      63.449259    
     29900   254.03984      0.1196         1.2178415     -9984.1784     -9917.9137      61.30508       61.339133      63.471936    
     30000   253.63009      0.12           1.2241714     -9976.9403     -9593.0254      61.30508       61.339133      63.494612    
     30100   252.30296      0.1204         1.2491587     -10210.706     -9908.5313      61.30508       61.339133      63.517289    
     30200   254.03806      0.1208         1.2167764     -10199.527     -9885.4961      61.30508       61.339133      63.539966    
     30300   253.81518      0.1212         1.218991      -10077.083     -9720.4537      61.30508       61.339133      63.562642    
     30400   251.69273      0.1216         1.2154558     -9687.2185     -9839.3091      61.30508       61.339133      63.585319    
     30500   252.71736      0.122          1.1546234     -9659.4374     -9651.9757      61.30508       61.339133      63.607996    
     30600   255.99159      0.1224         1.1423933     -9261.3642     -9156.9653      61.30508       61.339133      63.630672    
     30700   251.57564      0.1228         1.0963851     -8699.2854     -8680.7044      61.30508       61.339133      63.653349    
     30800   252.62926      0.1232         1.121975      -9031.6948     -9128.6182      61.30508       61.339133      63.676026    
     30900   249.17929      0.1236         1.118124      -9100.465      -9157.6254      61.30508       61.339133      63.698702    
     31000   251.47473      0.124          1.1462894     -9218.0369     -9275.229       61.30508       61.339133      63.721379    
     31100   251.83227      0.1244         1.1917657     -9547.9504     -9665.7684      61.30508       61.339133      63.744056    
     31200   250.47336      0.1248         1.2341345     -9889.5639     -9737.5446      61.30508       61.339133      63.766732    
     31300   250.86554      0.1252         1.2382101     -10178.645     -10159.343      61.30508       61.339133      63.789409    
     31400   252.85479      0.1256         1.2405584     -9723.2741     -10002.814      61.30508       61.339133      63.812085    
     31500   253.08758      0.126          1.2254342     -9771.363      -9732.6306      61.30508       61.339133      63.834762    
     31600   250.13588      0.1264         1.2531251     -10090.566     -10007.977      61.30508       61.339133      63.857439    
     31700   252.7885       0.1268         1.1840439     -9521.0044     -9499.9196      61.30508       61.339133      63.880115    
     31800   250.54279      0.1272         1.2233895     -9758.6473     -9775.7139      61.30508       61.339133      63.902792    
     31900   248.14514      0.1276         1.2287111     -9674.5755     -9952.3511      61.30508       61.339133      63.925469    
     32000   253.03488      0.128          1.200389      -9411.2352     -9410.6108      61.30508       61.339133      63.948145    
     32100   251.28933      0.1284         1.1796788     -9209.4052     -9184.531       61.30508       61.339133      63.970822    
     32200   251.00406    2       61.30508       61.339133      63.381229    
     29600   254.98673      0.1184         1.1733599     -9346.1372     -9316.8518      61.30508       61.339133      63.403906    
     29700   255.13886      0.1188         1.2025162     -9816.7887     -9698.5316      61.30508       61.339133      63.426582    
     29800   249.64942      0.1192         1.2741835     -10152.541     -9976.3966      61.30508       61.339133      63.449259    
     29900   254.03984      0.1196         1.2178415       32600   250.13379      0.1304         1.2253113     -9626.6498     -9862.8907      61.30508       61.339133      64.084205    
     32700   254.47142      0.1308         1.2294357     -9699.6122     -9868.2058      61.30508       61.339133      64.106882    
     32800   251.13695      0.1312         1.2476331     -9525.7321     -9869.7266      61.30508       61.339133      64.129559    
     32900   251.18772      0.1316         1.2353644     -9700.0886     -9961.4604      61.30508       61.339133      64.152235    
     33000   255.12422      0.132          1.1834985     -9247.4417     -9434.3229      61.30508       61.339133      64.174912    
     33100   251.22349      0.1324         1.1612769     -9147.0517     -9276.8301      61.30508       61.339133      64.197588    
     33200   250.00843      0.1328         1.1971651     -9360.0117     -9443.6399      61.30508       61.339133      64.220265    
     33300   252.20007      0.1332         1.1538743     -9011.7756     -9148.6239      61.30508       61.339133      64.242942    
     33400   253.02473      0.1336         1.1318897     -9049.9391     -9077.2961      61.30508       61.339133      64.265618    
     33500   250.41794      0.134          1.135509      -8800.9428     -9155.6145      61.30508       61.339133      64.288295    
     33600   253.43315      0.1344         1.134014      -9007.4283     -9129.6111      61.30508       61.339133      64.310972    
     33700   250.79674      0.1348         1.1432832     -8828.9136     -9259.455       61.30508       61.339133      64.333648    
     33800   252.16852      0.1352         1.1688995     -9035.6878     -9346.2881      61.30508       61.339133      64.356325    
     33900   251.12058      0.1356         1.1105472     -8653.4583     -8820.4781      61.30508       61.339133      64.379002    
     34000   257.2772       0.136          1.093499      -8684.8004     -8967.3647      61.30508       61.339133      64.401678    
     34100   251.75314      0.1364         1.0462102     -8390.2414     -8683.8629      61.30508       61.339133      64.424355    
     34200   252.31605      0.1368         1.0449717     -8535.0555     -8688.055       61.30508       61.339133      64.447032    
     34300   253.59189      0.1372         0.96484335    -8108.1778     -8003.1715      61.30508       61.339133      64.469708    
     34400   249.90203      0.1376         0.96458961    -7593.1876     -8086.9408      61.30508       61.339133      64.492385    
     34500   250.91232      0.138          0.95317937    -7772.6277     -8065.7757      61.30508       61.339133      64.515062    
     34600   254.01359      0.1384         0.92415211    -7533.1602     -7690.6596      61.30508       61.339133      64.537738    
     34700   253.52353      0.1388         0.95255468    -7699.9565     -7895.6052      61.30508       61.339133      64.560415    
     34800   251.76415      0.1392         0.9301012     -7799.9538     -7996.7043      61.30508       61.339133      64.583091    
     34900   253.20244      0.1396         0.95803675    -7723.6364     -7924.3344      61.30508       61.339133      64.605768    
     35000   254.7045       0.14           0.97459435    -8009.2201     -8282.1733      61.30508       61.339133      64.628445    
     35100   251.18657      0.1404         1.0107279     -8088.95       -8262.3578      61.30508       61.339133      64.651121    
     35200   253.74354      0.1408         0.9520549     -7711.1299     -7996.0972      61.30508       61.339133      64.673798    
     35300   255.05878      0.    61.30508       61.339133      64.084205    
     32700   254.47142      0.1308         1.2294357     -9699.6122     -9868.2058      61.30508       61.339133      64.106882    
     32800   251.13695      0.1312         1.2476331     -9525.7321     -9869.7266      61.30508       61.339133      64.129559    
     32900   251.18772      0.1316         1.2353644     -9700.0886     -9961.4604      61.30508       61.339133      64.152235    
     33000   255.12422      0.132          1.1834985       35700   249.69263      0.1428         0.94233368    -7832.0583     -7867.3192      61.30508       61.339133      64.787181    
     35800   251.6634       0.1432         0.94074263    -7458.8393     -7997.9709      61.30508       61.339133      64.809858    
     35900   256.16885      0.1436         0.94293841    -7515.9144     -7736.6628      61.30508       61.339133      64.832535    
     36000   252.3114       0.144          0.93520171    -7670.4779     -7946.8815      61.30508       61.339133      64.855211    
     36100   253.69879      0.1444         0.96972987    -8033.4268     -8270.0925      61.30508       61.339133      64.877888    
     36200   248.46079      0.1448         0.96292714    -7908.7695     -7969.8096      61.30508       61.339133      64.900565    
     36300   254.66686      0.1452         0.91847983    -7673.4688     -7752.1565      61.30508       61.339133      64.923241    
     36400   251.79982      0.1456         0.96100265    -7787.6432     -7969.8557      61.30508       61.339133      64.945918    
     36500   251.14744      0.146          0.94708976    -7821.596      -7998.2096      61.30508       61.339133      64.968594    
     36600   252.84141      0.1464         0.91295818    -7426.8175     -7664.5361      61.30508       61.339133      64.991271    
     36700   248.8729       0.1468         0.9552791     -7987.3182     -8025.025       61.30508       61.339133      65.013948    
     36800   252.99339      0.1472         0.93078124    -7559.4643     -7754.2536      61.30508       61.339133      65.036624    
     36900   253.31881      0.1476         0.90677453    -7215.0914     -7704.5404      61.30508       61.339133      65.059301    
     37000   251.807        0.148          0.94556344    -7833.0082     -7897.5096      61.30508       61.339133      65.081978    
[...]
     52400   251.76961      0.2096         0.34726427    -3649.2377     -4008.4611      61.30508       61.339133      68.574181    
     52500   254.02499      0.21           0.3553815     -3611.8744     -3911.298       61.30508       61.339133      68.596858    
     52600   251.57932      0.2104         0.38673012    -3895.7289     -3976.6397      61.30508       61.339133      68.619535    
     52700   252.95346      0.2108         0.37535749    -3932.4022     -4109.7768      61.30508       61.339133      68.642211    
     52800   255.01732      0.2112         0.38690791    -3810.7204     -4003.2307      61.30508       61.339133      68.664888    
     52900   252.62028      0.2116         0.44168761    -4387.5303     -4542.3987      61.30508       61.339133      68.687565    
     53000   253.11066      0.212          0.38530857    -3976.4542     -4047.1594      61.30508       61.339133      68.710241    
     53100   252.25539      0.2124         0.4217912     -4165.3236     -4547.8529      61.30508       61.339133      68.732918    
     53200   250.26042      0.2128         0.39607216    -4067.6568     -4247.8304      61.30508       61.339133      68.755595    
     53300   248.37642      0.2132         0.33541193    -3517.3424     -3812.9139      61.30508       61.339133      68.778271    
     53400   250.84369      0.2136         0.36899424    -3861.4713     -4017.1595      61.30508       61.339133      68.800948    
     53500   250.82685      0.214          0.35678342    -3668.8785     -3749.6008      61.30508       61.339133      68.823624    
     53600   250.29344      0.2144         0.36005913    -3758.0725     -3810.128       61.30508       61.339133      68.846301    
     53700   250.8016       0.2148         0.39302446    -4045.4527     -4445.5608      61.30508       61.339133      68.868978    
     53800   252.7666       0.2152         0.34242361    -3608.0052     -3833.4399      61.30508       61.339133      68.891654    
     53900   251.44441      0.2156         0.37628649 9133      68.302062    
     51300   251.45218      0.2052         0.39416112    -3963.3253     -4402.985       61.30508       61.339133      68.324738    
     51400   255.32685      0.2056         0.38919887    -3581.6627     -4076.5726      61.30508       61.339133      68.347415    
     51500   252.23518      0.206          0.39053499    -4103.2146     -4156.0437      61.30508       61.339133      68.370092    
     51600   251.29435      0.2064         0.39399233      54300   249.60992      0.2172         0.36313569    -3733.5473     -3920.4166      61.30508       61.339133      69.005038    
     54400   251.45012      0.2176         0.30975355    -3274.5519     -3259.7072      61.30508       61.339133      69.027714    
     54500   253.98764      0.218          0.41366219    -4075.2183     -4116.0292      61.30508       61.339133      69.050391    
     54600   249.15977      0.2184         0.36866273    -3844.9386     -3842.993       61.30508       61.339133      69.073068    
     54700   253.12416      0.2188         0.35502495    -3544.4528     -3744.9935      61.30508       61.339133      69.095744    
     54800   254.23342      0.2192         0.39417127    -3895.8756     -4104.6599      61.30508       61.339133      69.118421    
     54900   249.2858       0.2196         0.35437271    -4078.9628     -4159.1772      61.30508       61.339133      69.141098    
     55000   251.41488      0.22           0.37802652    -3969.513      -4146.5094      61.30508       61.339133      69.163774    
     55100   252.87925      0.2204         0.37147604    -3603.1305     -4093.3234      61.30508       61.339133      69.186451    
     55200   251.85916      0.2208         0.32315684    -3453.0108     -3867.3767      61.30508       61.339133      69.209127    
     55300   252.10915      0.2212         0.34870289    -3756.3218     -4035.477       61.30508       61.339133      69.231804    
     55400   254.0402       0.2216         0.27479673    -3090.9928     -3469.2884      61.30508       61.339133      69.254481    
     55500   253.05137      0.222          0.31222356    -3369.2866     -3929.0311      61.30508       61.339133      69.277157    
     55600   250.75771      0.2224         0.33367638    -3784.4899     -3912.2486      61.30508       61.339133      69.299834    
     55700   252.90715      0.2228         0.28060921    -2904.9115     -3331.6582      61.30508       61.339133      69.322511    
     55800   251.86856      0.2232         0.26268739    -3180.4308     -3574.9124      61.30508       61.339133      69.345187    
     55900   251.38161      0.2236         0.26670685    -3311.6202     -3415.3015      61.30508       61.339133      69.367864    
     56000   254.43068      0.224          0.20227322    -2815.7492     -3021.9548      61.30508       61.339133      69.390541    
     56100   251.26708      0.2244         0.26225586    -3133.4717     -3398.5645      61.30508       61.339133      69.413217    
     56200   251.33881      0.2248         0.24490025    -3040.987      -3301.0735      61.30508       61.339133      69.435894    
     56300   249.38525      0.2252         0.2475964     -3145.0366     -3116.4613      61.30508       61.339133      69.458571    
     56400   252.96667      0.2256         0.22519589    -2894.9524     -3341.0569      61.30508       61.339133      69.481247    
     56500   252.03118      0.226          0.25025295    -3135.4596     -3307.4526      61.30508       61.339133      69.503924    
     56600   251.16372      0.2264         0.25086049    -3055.4528     -3379.6063      61.30508       61.339133      69.526601    
     56700   251.67748      0.2268         0.23936099    -3212.5062     -3252.6347      61.30508       61.339133      69.549277    
     56800   251.42237      0.2272         0.18767295    -2760.7068     -2872.835       61.30508       61.339133      69.571954    
     56900   249.57496      0.2276         0.25286565    -2974.627      -3438.5922      61.30508       61.339133      69.594631    
     57000   253.01664      0.228          0.21922207    -      69.005038    
     54400   251.45012      0.2176         0.30975355    -3274.5519     -3259.7072      61.30508       61.339133      69.027714    
     54500   253.98764      0.218          0.41366219    -4075.2183     -4116.0292      61.30508       61.339133      69.050391    
     54600   249.15977      0.2184         0.36866273    -3844.9386     -3842.993       61.30508       61.339133      69.073068    
     54700   253.12416      0.2188         0.35502495      57400   252.35224      0.2296         0.25309177    -3028.7017     -3037.2282      61.30508       61.339133      69.708014    
     57500   250.56177      0.23           0.27693408    -3126.6876     -3529.0597      61.30508       61.339133      69.73069     
     57600   257.01064      0.2304         0.22972405    -3110.612      -3173.8861      61.30508       61.339133      69.753367    
     57700   251.92916      0.2308         0.28042901    -3351.4826     -3450.9681      61.30508       61.339133      69.776044    
     57800   249.08752      0.2312         0.2626888     -3337.3969     -3564.5469      61.30508       61.339133      69.79872     
     57900   251.28735      0.2316         0.28285606    -3325.48       -3566.9426      61.30508       61.339133      69.821397    
     58000   251.58375      0.232          0.25472559    -3094.4646     -3259.7341      61.30508       61.339133      69.844074    
     58100   253.82261      0.2324         0.26917295    -3350.3536     -3322.6733      61.30508       61.339133      69.86675     
     58200   249.49681      0.2328         0.23775741    -2882.7622     -3332.5667      61.30508       61.339133      69.889427    
     58300   247.86836      0.2332         0.24461778    -3120.514      -3016.3666      61.30508       61.339133      69.912104    
     58400   253.12121      0.2336         0.21080703    -2913.3285     -3064.7293      61.30508       61.339133      69.93478     
     58500   248.21684      0.234          0.235874      -2960.9301     -3436.0223      61.30508       61.339133      69.957457    
     58600   249.6233       0.2344         0.29364814    -3471.2842     -3523.483       61.30508       61.339133      69.980134    
     58700   254.33024      0.2348         0.28282059    -3259.8024     -3515.3395      61.30508       61.339133      70.00281     
     58800   248.69081      0.2352         0.26778706    -3061.603      -3297.5489      61.30508       61.339133      70.025487    
     58900   249.02652      0.2356         0.25201352    -2972.0896     -3248.0983      61.30508       61.339133      70.048163    
     59000   251.52273      0.236          0.22171285    -2851.6529     -3142.6367      61.30508       61.339133      70.07084     
     59100   256.07104      0.2364         0.2545286     -2953.8        -3127.0147      61.30508       61.339133      70.093517    
     59200   250.27018      0.2368         0.28228309    -3192.9151     -3572.0419      61.30508       61.339133      70.116193    
     59300   253.3329       0.2372         0.26037575    -3306.2932     -3278.3545      61.30508       61.339133      70.13887     
     59400   252.64808      0.2376         0.31476319    -3491.4099     -3758.4304      61.30508       61.339133      70.161547    
     59500   250.23283      0.238          0.25936854    -3308.1647     -3254.8808      61.30508       61.339133      70.184223    
     59600   248.23682      0.2384         0.26135166    -3185.5667     -3422.7525      61.30508       61.339133      70.2069      
     59700   252.16         0.2388         0.24316632    -3111.6022     -3146.1535      61.30508       61.339133      70.229577    
     59800   254.56101      0.2392         0.24743788    -3039.5625     -3053.4926      61.30508       61.339133      70.252253    
     59900   248.56002      0.2396         0.25864163    -3163.9415     -3162.8758      61.30508       61.339133      70.27493     
     60000   252.35934      0.24           0.29443555    -3375.7298     -3472.5177      61.30508       61.339133      70.297607    
     60100   252.76577      0.2404         0.26904304    -3232  69.708014    
     57500   250.56177      0.23           0.27693408    -3126.6876     -3529.0597      61.30508       61.339133      69.73069     
     57600   257.01064      0.2304         0.22972405    -3110.612      -3173.8861      61.30508       61.339133      69.753367    
     57700   251.92916      0.2308         0.28042901    -3351.4826     -3450.9681      61.30508       61.339133      69.776044    
     57800   249.08752      0.2312         0.2626888       60500   253.37104      0.242          0.28789427    -3312.5412     -3362.2054      61.30508       61.339133      70.41099     
     60600   249.45982      0.2424         0.25377869    -3186.2164     -3321.0172      61.30508       61.339133      70.433666    
     60700   252.0311       0.2428         0.26229473    -3135.2726     -3045.8292      61.30508       61.339133      70.456343    
     60800   252.18033      0.2432         0.2597709     -2837.2946     -3224.8021      61.30508       61.339133      70.47902     
     60900   252.87712      0.2436         0.28436757    -3142.9524     -3292.7403      61.30508       61.339133      70.501696    
     61000   250.60595      0.244          0.25683293    -3215.392      -3293.2843      61.30508       61.339133      70.524373    
     61100   253.42842      0.2444         0.22037433    -2720.2443     -2834.9442      61.30508       61.339133      70.54705     
     61200   253.84143      0.2448         0.22110074    -2836.3073     -2845.1587      61.30508       61.339133      70.569726    
     61300   248.42414      0.2452         0.28131199    -3170.1111     -3372.8542      61.30508       61.339133      70.592403    
     61400   251.75973      0.2456         0.23888786    -3130.7067     -3452.8907      61.30508       61.339133      70.61508     
     61500   251.5383       0.246          0.23232907    -2701.7628     -2897.2337      61.30508       61.339133      70.637756    
     61600   252.0578       0.2464         0.25353425    -3034.9802     -3122.2527      61.30508       61.339133      70.660433    
     61700   254.0338       0.2468         0.25091539    -3128.6106     -3188.3735      61.30508       61.339133      70.68311     
     61800   254.58234      0.2472         0.27277665    -3083.1783     -3394.2863      61.30508       61.339133      70.705786    
     61900   252.46921      0.2476         0.2649224     -3050.4709     -3078.308       61.30508       61.339133      70.728463    
     62000   252.56263      0.248          0.21962614    -2641.7751     -2862.9428      61.30508       61.339133      70.75114     
     62100   252.19436      0.2484         0.21038279    -2842.9456     -3156.1468      61.30508       61.339133      70.773816    
     62200   253.81227      0.2488         0.21523852    -2930.1018     -2975.6701      61.30508       61.339133      70.796493    
     62300   249.90472      0.2492         0.22801376    -2920.2203     -2913.1657      61.30508       61.339133      70.819169    
     62400   252.79827      0.2496         0.1963006     -2722.3319     -2945.1771      61.30508       61.339133      70.841846    
     62500   255.86785      0.25           0.16070351    -2420.3918     -2628.3064      61.30508       61.339133      70.864523    
     62600   253.71569      0.2504         0.21094039    -2795.359      -3137.9875      61.30508       61.339133      70.887199    
     62700   250.44957      0.2508         0.2044378     -2621.8917     -2780.3121      61.30508       61.339133      70.909876    
     62800   255.16912      0.2512         0.18256658    -2632.9418     -2742.8746      61.30508       61.339133      70.932553    
     62900   253.08119      0.2516         0.18644571    -2528.2614     -2841.5466      61.30508       61.339133      70.955229    
     63000   250.19557      0.252          0.15952371    -2537.8065     -2786.8625      61.30508       61.339133      70.977906    
     63100   253.39038      0.2524         0.17859779    -2475.2354     -2641.0856      61.30508       61.339133      71.000583    
     63200   251.53446      0.2528         0.20927551    -3014.231.41099     
     60600   249.45982      0.2424         0.25377869    -3186.2164     -3321.0172      61.30508       61.339133      70.433666    
     60700   252.0311       0.2428         0.26229473    -3135.2726     -3045.8292      61.30508       61.339133      70.456343    
     60800   252.18033      0.2432         0.2597709     -2837.2946     -3224.8021      61.30508       61.339133      70.47902     
     60900   252.87712      0.2436         0.28436757      63600   252.46994      0.2544         0.10757157    -2292.6917     -2332.0307      61.30508       61.339133      71.113966    
     63700   252.99875      0.2548         0.12727439    -2195.3405     -2533.8018      61.30508       61.339133      71.136643    
Fix halt condition for fix-id halt_frac met on step 63800 with value 1
     63800   251.1042       0.2552         0.059784693   -1944.4154     -2031.6533      61.30508       61.339133      71.159319    
Loop time of 639.3 on 4 procs for 63800 steps with 16407 atoms

Performance: 17.245 ns/day, 1.392 hours/ns, 99.797 timesteps/s, 1.637 Matom-step/s
104.6% CPU use with 4 MPI tasks x 1 OpenMP threads

MPI task timing breakdown:
Section |  min time  |  avg time  |  max time  |%varavg| %total
---------------------------------------------------------------
Pair    | 402.99     | 499.93     | 595.03     | 425.2 | 78.20
Neigh   | 4.4278     | 7.7669     | 11.091     | 117.4 |  1.21
Comm    | 17.87      | 116.39     | 216.54     | 911.8 | 18.21
Output  | 6.6289     | 7.8442     | 9.0718     |  33.6 |  1.23
Modify  | 4.7728     | 5.0295     | 5.2802     |  11.0 |  0.79
Other   |            | 2.339      |            |       |  0.37

Nlocal:        4101.75 ave        5472 max        2710 min
Histogram: 2 0 0 0 0 0 0 0 0 2
Nghost:         5001.5 ave        5575 max        4458 min
Histogram: 2 0 0 0 0 0 0 0 0 2
Neighs:         364888 ave      549403 max      181920 min
Histogram: 2 0 0 0 0 0 0 0 0 2

Total # of neighbors = 1459550
Ave neighs/atom = 88.958981
Neighbor list builds = 1265
Dangerous builds = 0
Total wall time: 0:13:31
156.1468      61.30508       61.339133      70.773816    
     62200   253.81227      0.2488         0.21523852    -2930.1018     -2975.6701      61.30508       61.339133      70.796493    
     62300   249.90472      0.2492         0.22801376    -2920.2203     -2913.1657      61.30508       61.339133      70.819169    
     62400   252.79827      0.2496         0.1963006     -2722.3319     -2945.1771      61.30508       61.339133      70.841846    
     62500   255.86785      0.25           0.16070351    -2420.3918     -2628.3064      61.30508       61.339133      70.864523    
     62600   253.71569      0.2504         0.21094039    -2795.359      -3137.9875      61.30508       61.339133      70.887199    
     62700   250.44957      0.2508         0.2044378     -2621.8917     -2780.3121      61.30508       61.339133      70.909876    
     62800   255.16912      0.2512         0.18256658    -2632.9418     -2742.8746      61.30508       61.339133      70.932553    
     62900   253.08119      0.2516         0.18644571    -2528.2614     -2841.5466      61.30508       61.339133      70.955229    
     63000   250.19557      0.252          0.15952371    -2537.8065     -2786.8625      61.30508       61.339133      70.977906    
     63100   253.39038      0.2524         0.17859779    -2475.2354     -2641.0856      61.30508       61.339133      71.000583    
     63200   251.53446      0.2528         0.20927551    -3014.2313     -3072.1894      61.30508       61.339133      71.023259    
     63300   252.78264      0.2532         0.19022025    -2808.5051     -2933.8904      61.30508       61.339133      71.045936    
     63400   252.46053      0.2536         0.13899773    -2194.0702     -2629.3664      61.30508       61.339133      71.068613    
     63500   250.90122      0.254          0.1312466     -2180.5072     -2497.3626      61.30508       61.339133      71.091289    
     63600   252.46994      0.2544         0.10757157    -2292.6917     -2332.0307      61.30508       61.339133      71.113966    
     63700   252.99875      0.2548         0.12727439    -2195.3405     -2533.8018      61.30508       61.339133      71.136643    
Fix halt condition for fix-id halt_frac met on step 63800 with value 1
     63800   251.1042       0.2552         0.059784693   -1944.4154     -2031.6533      61.30508       61.339133      71.159319    
Loop time of 639.3 on 4 procs for 63800 steps with 16407 atoms

Performance: 17.245 ns/day, 1.392 hours/ns, 99.797 timesteps/s, 1.637 Matom-step/s
104.6% CPU use with 4 MPI tasks x 1 OpenMP threads

MPI task timing breakdown:
Section |  min time  |  avg time  |  max time  |%varavg| %total
---------------------------------------------------------------
Pair    | 402.99     | 499.93     | 595.03     | 425.2 | 78.20
Neigh   | 4.4278     | 7.7669     | 11.091     | 117.4 |  1.21
Comm    | 17.87      | 116.39     | 216.54     | 911.8 | 18.21
Output  | 6.6289     | 7.8442     | 9.0718     |  33.6 |  1.23
Modify  | 4.7728     | 5.0295     | 5.2802     |  11.0 |  0.79
Other   |            | 2.339      |            |       |  0.37

Nlocal:        4101.75 ave        5472 max        2710 min
Histogram: 2 0 0 0 0 0 0 0 0 2
Nghost:         5001.5 ave        5575 max        4458 min
Histogram: 2 0 0 0 0 0 0 0 0 2
Neighs:         364888 ave      549403 max      181920 min
Histogram: 2 0 0 0 0 0 0 0 0 2

Total # of neighbors = 1459550
Ave neighs/atom = 88.958981
Neighbor list builds = 1265
Dangerous builds = 0
Total wall time: 0:13:31
