(written by ASE)

864 atoms
1 atom types

0.0      24.468000000000004  xlo xhi
0.0      24.468000000000004  ylo yhi
0.0      24.468000000000004  zlo zhi

Atoms # atomic

     1   1                       0                       0                       0
     2   1                       0      2.0390000000000001      2.0390000000000001
     3   1      2.0390000000000001                       0      2.0390000000000001
     4   1      2.0390000000000001      2.0390000000000001                       0
     5   1                       0                       0      4.0780000000000003
     6   1                       0      2.0390000000000001      6.1170000000000009
     7   1      2.0390000000000001                       0      6.1170000000000009
     8   1      2.0390000000000001      2.0390000000000001      4.0780000000000003
     9   1                       0                       0      8.1560000000000006
    10   1                       0      2.0390000000000001                  10.195
    11   1      2.0390000000000001                       0                  10.195
    12   1      2.0390000000000001      2.0390000000000001      8.1560000000000006
    13   1                       0                       0      12.234000000000002
    14   1                       0      2.0390000000000001      14.273000000000001
    15   1      2.0390000000000001                       0      14.273000000000001
    16   1      2.0390000000000001      2.0390000000000001      12.234000000000002
    17   1                       0                       0      16.312000000000001
    18   1                       0      2.0390000000000001      18.351000000000003
    19   1      2.0390000000000001                       0      18.351000000000003
    20   1      2.0390000000000001      2.0390000000000001      16.312000000000001
    21   1                       0                       0      20.390000000000001
    22   1                       0      2.0390000000000001      22.429000000000002
    23   1      2.0390000000000001                       0      22.429000000000002
    24   1      2.0390000000000001      2.0390000000000001      20.390000000000001
    25   1                       0      4.0780000000000003                       0
    26   1                       0      6.1170000000000009      2.0390000000000001
    27   1      2.0390000000000001      4.0780000000000003      2.0390000000000001
    28   1      2.0390000000000001      6.1170000000000009                       0
    29   1                       0      4.0780000000000003      4.0780000000000003
    30   1                       0      6.1170000000000009      6.1170000000000009
    31   1      2.0390000000000001      4.0780000000000003      6.1170000000000009
    32   1      2.0390000000000001      6.1170000000000009      4.0780000000000003
    33   1                       0      4.0780000000000003      8.1560000000000006
    34   1                       0      6.1170000000000009                  10.195
    35   1      2.0390000000000001      4.0780000000000003                  10.195
    36   1      2.0390000000000001      6.1170000000000009      8.1560000000000006
    37   1                       0      4.0780000000000003      12.234000000000002
    38   1                       0      6.1170000000000009      14.273000000000001
    39   1      2.0390000000000001      4.0780000000000003      14.273000000000001
    40   1      2.0390000000000001      6.1170000000000009      12.234000000000002
    41   1                       0      4.0780000000000003      16.312000000000001
    42   1                       0      6.1170000000000009      18.351000000000003
    43   1      2.0390000000000001      4.0780000000000003      18.351000000000003
    44   1      2.0390000000000001      6.1170000000000009      16.312000000000001
    45   1                       0      4.0780000000000003      20.390000000000001
    46   1                       0      6.1170000000000009      22.429000000000002
    47   1      2.0390000000000001      4.0780000000000003      22.429000000000002
    48   1      2.0390000000000001      6.1170000000000009      20.390000000000001
    49   1                       0      8.1560000000000006                       0
    50   1                       0                  10.195      2.0390000000000001
    51   1      2.0390000000000001      8.1560000000000006      2.0390000000000001
    52   1      2.0390000000000001                  10.195                       0
    53   1                       0      8.1560000000000006      4.0780000000000003
    54   1                       0                  10.195      6.1170000000000009
    55   1      2.0390000000000001      8.1560000000000006      6.1170000000000009
    56   1      2.0390000000000001                  10.195      4.0780000000000003
    57   1                       0      8.1560000000000006      8.1560000000000006
    58   1                       0                  10.195                  10.195
    59   1      2.0390000000000001      8.1560000000000006                  10.195
    60   1      2.0390000000000001                  10.195      8.1560000000000006
    61   1                       0      8.1560000000000006      12.234000000000002
    62   1                       0                  10.195      14.273000000000001
    63   1      2.0390000000000001      8.1560000000000006      14.273000000000001
    64   1      2.0390000000000001                  10.195      12.234000000000002
    65   1                       0      8.1560000000000006      16.312000000000001
    66   1                       0                  10.195      18.351000000000003
    67   1      2.0390000000000001      8.1560000000000006      18.351000000000003
    68   1      2.0390000000000001                  10.195      16.312000000000001
    69   1                       0      8.1560000000000006      20.390000000000001
    70   1                       0                  10.195      22.429000000000002
    71   1      2.0390000000000001      8.1560000000000006      22.429000000000002
    72   1      2.0390000000000001                  10.195      20.390000000000001
    73   1                       0      12.234000000000002                       0
    74   1                       0      14.273000000000001      2.0390000000000001
    75   1      2.0390000000000001      12.234000000000002      2.0390000000000001
    76   1      2.0390000000000001      14.273000000000001                       0
    77   1                       0      12.234000000000002      4.0780000000000003
    78   1                       0      14.273000000000001      6.1170000000000009
    79   1      2.0390000000000001      12.234000000000002      6.1170000000000009
    80   1      2.0390000000000001      14.273000000000001      4.0780000000000003
    81   1                       0      12.234000000000002      8.1560000000000006
    82   1                       0      14.273000000000001                  10.195
    83   1      2.0390000000000001      12.234000000000002                  10.195
    84   1      2.0390000000000001      14.273000000000001      8.1560000000000006
    85   1                       0      12.234000000000002      12.234000000000002
    86   1                       0      14.273000000000001      14.273000000000001
    87   1      2.0390000000000001      12.234000000000002      14.273000000000001
    88   1      2.0390000000000001      14.273000000000001      12.234000000000002
    89   1                       0      12.234000000000002      16.312000000000001
    90   1                       0      14.273000000000001      18.351000000000003
    91   1      2.0390000000000001      12.234000000000002      18.351000000000003
    92   1      2.0390000000000001      14.273000000000001      16.312000000000001
    93   1                       0      12.234000000000002      20.390000000000001
    94   1                       0      14.273000000000001      22.429000000000002
    95   1      2.0390000000000001      12.234000000000002      22.429000000000002
    96   1      2.0390000000000001      14.273000000000001      20.390000000000001
    97   1                       0      16.312000000000001                       0
    98   1                       0      18.351000000000003      2.0390000000000001
    99   1      2.0390000000000001      16.312000000000001      2.0390000000000001
   100   1      2.0390000000000001      18.351000000000003                       0
   101   1                       0      16.312000000000001      4.0780000000000003
   102   1                       0      18.351000000000003      6.1170000000000009
   103   1      2.0390000000000001      16.312000000000001      6.1170000000000009
   104   1      2.0390000000000001      18.351000000000003      4.0780000000000003
   105   1                       0      16.312000000000001      8.1560000000000006
   106   1                       0      18.351000000000003                  10.195
   107   1      2.0390000000000001      16.312000000000001                  10.195
   108   1      2.0390000000000001      18.351000000000003      8.1560000000000006
   109   1                       0      16.312000000000001      12.234000000000002
   110   1                       0      18.351000000000003      14.273000000000001
   111   1      2.0390000000000001      16.312000000000001      14.273000000000001
   112   1      2.0390000000000001      18.351000000000003      12.234000000000002
   113   1                       0      16.312000000000001      16.312000000000001
   114   1                       0      18.351000000000003      18.351000000000003
   115   1      2.0390000000000001      16.312000000000001      18.351000000000003
   116   1      2.0390000000000001      18.351000000000003      16.312000000000001
   117   1                       0      16.312000000000001      20.390000000000001
   118   1                       0      18.351000000000003      22.429000000000002
   119   1      2.0390000000000001      16.312000000000001      22.429000000000002
   120   1      2.0390000000000001      18.351000000000003      20.390000000000001
   121   1                       0      20.390000000000001                       0
   122   1                       0      22.429000000000002      2.0390000000000001
   123   1      2.0390000000000001      20.390000000000001      2.0390000000000001
   124   1      2.0390000000000001      22.429000000000002                       0
   125   1                       0      20.390000000000001      4.0780000000000003
   126   1                       0      22.429000000000002      6.1170000000000009
   127   1      2.0390000000000001      20.390000000000001      6.1170000000000009
   128   1      2.0390000000000001      22.429000000000002      4.0780000000000003
   129   1                       0      20.390000000000001      8.1560000000000006
   130   1                       0      22.429000000000002                  10.195
   131   1      2.0390000000000001      20.390000000000001                  10.195
   132   1      2.0390000000000001      22.429000000000002      8.1560000000000006
   133   1                       0      20.390000000000001      12.234000000000002
   134   1                       0      22.429000000000002      14.273000000000001
   135   1      2.0390000000000001      20.390000000000001      14.273000000000001
   136   1      2.0390000000000001      22.429000000000002      12.234000000000002
   137   1                       0      20.390000000000001      16.312000000000001
   138   1                       0      22.429000000000002      18.351000000000003
   139   1      2.0390000000000001      20.390000000000001      18.351000000000003
   140   1      2.0390000000000001      22.429000000000002      16.312000000000001
   141   1                       0      20.390000000000001      20.390000000000001
   142   1                       0      22.429000000000002      22.429000000000002
   143   1      2.0390000000000001      20.390000000000001      22.429000000000002
   144   1      2.0390000000000001      22.429000000000002      20.390000000000001
   145   1      4.0780000000000003                       0                       0
   146   1      4.0780000000000003      2.0390000000000001      2.0390000000000001
   147   1      6.1170000000000009                       0      2.0390000000000001
   148   1      6.1170000000000009      2.0390000000000001                       0
   149   1      4.0780000000000003                       0      4.0780000000000003
   150   1      4.0780000000000003      2.0390000000000001      6.1170000000000009
   151   1      6.1170000000000009                       0      6.1170000000000009
   152   1      6.1170000000000009      2.0390000000000001      4.0780000000000003
   153   1      4.0780000000000003                       0      8.1560000000000006
   154   1      4.0780000000000003      2.0390000000000001                  10.195
   155   1      6.1170000000000009                       0                  10.195
   156   1      6.1170000000000009      2.0390000000000001      8.1560000000000006
   157   1      4.0780000000000003                       0      12.234000000000002
   158   1      4.0780000000000003      2.0390000000000001      14.273000000000001
   159   1      6.1170000000000009                       0      14.273000000000001
   160   1      6.1170000000000009      2.0390000000000001      12.234000000000002
   161   1      4.0780000000000003                       0      16.312000000000001
   162   1      4.0780000000000003      2.0390000000000001      18.351000000000003
   163   1      6.1170000000000009                       0      18.351000000000003
   164   1      6.1170000000000009      2.0390000000000001      16.312000000000001
   165   1      4.0780000000000003                       0      20.390000000000001
   166   1      4.0780000000000003      2.0390000000000001      22.429000000000002
   167   1      6.1170000000000009                       0      22.429000000000002
   168   1      6.1170000000000009      2.0390000000000001      20.390000000000001
   169   1      4.0780000000000003      4.0780000000000003                       0
   170   1      4.0780000000000003      6.1170000000000009      2.0390000000000001
   171   1      6.1170000000000009      4.0780000000000003      2.0390000000000001
   172   1      6.1170000000000009      6.1170000000000009                       0
   173   1      4.0780000000000003      4.0780000000000003      4.0780000000000003
   174   1      4.0780000000000003      6.1170000000000009      6.1170000000000009
   175   1      6.1170000000000009      4.0780000000000003      6.1170000000000009
   176   1      6.1170000000000009      6.1170000000000009      4.0780000000000003
   177   1      4.0780000000000003      4.0780000000000003      8.1560000000000006
   178   1      4.0780000000000003      6.1170000000000009                  10.195
   179   1      6.1170000000000009      4.0780000000000003                  10.195
   180   1      6.1170000000000009      6.1170000000000009      8.1560000000000006
   181   1      4.0780000000000003      4.0780000000000003      12.234000000000002
   182   1      4.0780000000000003      6.1170000000000009      14.273000000000001
   183   1      6.1170000000000009      4.0780000000000003      14.273000000000001
   184   1      6.1170000000000009      6.1170000000000009      12.234000000000002
   185   1      4.0780000000000003      4.0780000000000003      16.312000000000001
   186   1      4.0780000000000003      6.1170000000000009      18.351000000000003
   187   1      6.1170000000000009      4.0780000000000003      18.351000000000003
   188   1      6.1170000000000009      6.1170000000000009      16.312000000000001
   189   1      4.0780000000000003      4.0780000000000003      20.390000000000001
   190   1      4.0780000000000003      6.1170000000000009      22.429000000000002
   191   1      6.1170000000000009      4.0780000000000003      22.429000000000002
   192   1      6.1170000000000009      6.1170000000000009      20.390000000000001
   193   1      4.0780000000000003      8.1560000000000006                       0
   194   1      4.0780000000000003                  10.195      2.0390000000000001
   195   1      6.1170000000000009      8.1560000000000006      2.0390000000000001
   196   1      6.1170000000000009                  10.195                       0
   197   1      4.0780000000000003      8.1560000000000006      4.0780000000000003
   198   1      4.0780000000000003                  10.195      6.1170000000000009
   199   1      6.1170000000000009      8.1560000000000006      6.1170000000000009
   200   1      6.1170000000000009                  10.195      4.0780000000000003
   201   1      4.0780000000000003      8.1560000000000006      8.1560000000000006
   202   1      4.0780000000000003                  10.195                  10.195
   203   1      6.1170000000000009      8.1560000000000006                  10.195
   204   1      6.1170000000000009                  10.195      8.1560000000000006
   205   1      4.0780000000000003      8.1560000000000006      12.234000000000002
   206   1      4.0780000000000003                  10.195      14.273000000000001
   207   1      6.1170000000000009      8.1560000000000006      14.273000000000001
   208   1      6.1170000000000009                  10.195      12.234000000000002
   209   1      4.0780000000000003      8.1560000000000006      16.312000000000001
   210   1      4.0780000000000003                  10.195      18.351000000000003
   211   1      6.1170000000000009      8.1560000000000006      18.351000000000003
   212   1      6.1170000000000009                  10.195      16.312000000000001
   213   1      4.0780000000000003      8.1560000000000006      20.390000000000001
   214   1      4.0780000000000003                  10.195      22.429000000000002
   215   1      6.1170000000000009      8.1560000000000006      22.429000000000002
   216   1      6.1170000000000009                  10.195      20.390000000000001
   217   1      4.0780000000000003      12.234000000000002                       0
   218   1      4.0780000000000003      14.273000000000001      2.0390000000000001
   219   1      6.1170000000000009      12.234000000000002      2.0390000000000001
   220   1      6.1170000000000009      14.273000000000001                       0
   221   1      4.0780000000000003      12.234000000000002      4.0780000000000003
   222   1      4.0780000000000003      14.273000000000001      6.1170000000000009
   223   1      6.1170000000000009      12.234000000000002      6.1170000000000009
   224   1      6.1170000000000009      14.273000000000001      4.0780000000000003
   225   1      4.0780000000000003      12.234000000000002      8.1560000000000006
   226   1      4.0780000000000003      14.273000000000001                  10.195
   227   1      6.1170000000000009      12.234000000000002                  10.195
   228   1      6.1170000000000009      14.273000000000001      8.1560000000000006
   229   1      4.0780000000000003      12.234000000000002      12.234000000000002
   230   1      4.0780000000000003      14.273000000000001      14.273000000000001
   231   1      6.1170000000000009      12.234000000000002      14.273000000000001
   232   1      6.1170000000000009      14.273000000000001      12.234000000000002
   233   1      4.0780000000000003      12.234000000000002      16.312000000000001
   234   1      4.0780000000000003      14.273000000000001      18.351000000000003
   235   1      6.1170000000000009      12.234000000000002      18.351000000000003
   236   1      6.1170000000000009      14.273000000000001      16.312000000000001
   237   1      4.0780000000000003      12.234000000000002      20.390000000000001
   238   1      4.0780000000000003      14.273000000000001      22.429000000000002
   239   1      6.1170000000000009      12.234000000000002      22.429000000000002
   240   1      6.1170000000000009      14.273000000000001      20.390000000000001
   241   1      4.0780000000000003      16.312000000000001                       0
   242   1      4.0780000000000003      18.351000000000003      2.0390000000000001
   243   1      6.1170000000000009      16.312000000000001      2.0390000000000001
   244   1      6.1170000000000009      18.351000000000003                       0
   245   1      4.0780000000000003      16.312000000000001      4.0780000000000003
   246   1      4.0780000000000003      18.351000000000003      6.1170000000000009
   247   1      6.1170000000000009      16.312000000000001      6.1170000000000009
   248   1      6.1170000000000009      18.351000000000003      4.0780000000000003
   249   1      4.0780000000000003      16.312000000000001      8.1560000000000006
   250   1      4.0780000000000003      18.351000000000003                  10.195
   251   1      6.1170000000000009      16.312000000000001                  10.195
   252   1      6.1170000000000009      18.351000000000003      8.1560000000000006
   253   1      4.0780000000000003      16.312000000000001      12.234000000000002
   254   1      4.0780000000000003      18.351000000000003      14.273000000000001
   255   1      6.1170000000000009      16.312000000000001      14.273000000000001
   256   1      6.1170000000000009      18.351000000000003      12.234000000000002
   257   1      4.0780000000000003      16.312000000000001      16.312000000000001
   258   1      4.0780000000000003      18.351000000000003      18.351000000000003
   259   1      6.1170000000000009      16.312000000000001      18.351000000000003
   260   1      6.1170000000000009      18.351000000000003      16.312000000000001
   261   1      4.0780000000000003      16.312000000000001      20.390000000000001
   262   1      4.0780000000000003      18.351000000000003      22.429000000000002
   263   1      6.1170000000000009      16.312000000000001      22.429000000000002
   264   1      6.1170000000000009      18.351000000000003      20.390000000000001
   265   1      4.0780000000000003      20.390000000000001                       0
   266   1      4.0780000000000003      22.429000000000002      2.0390000000000001
   267   1      6.1170000000000009      20.390000000000001      2.0390000000000001
   268   1      6.1170000000000009      22.429000000000002                       0
   269   1      4.0780000000000003      20.390000000000001      4.0780000000000003
   270   1      4.0780000000000003      22.429000000000002      6.1170000000000009
   271   1      6.1170000000000009      20.390000000000001      6.1170000000000009
   272   1      6.1170000000000009      22.429000000000002      4.0780000000000003
   273   1      4.0780000000000003      20.390000000000001      8.1560000000000006
   274   1      4.0780000000000003      22.429000000000002                  10.195
   275   1      6.1170000000000009      20.390000000000001                  10.195
   276   1      6.1170000000000009      22.429000000000002      8.1560000000000006
   277   1      4.0780000000000003      20.390000000000001      12.234000000000002
   278   1      4.0780000000000003      22.429000000000002      14.273000000000001
   279   1      6.1170000000000009      20.390000000000001      14.273000000000001
   280   1      6.1170000000000009      22.429000000000002      12.234000000000002
   281   1      4.0780000000000003      20.390000000000001      16.312000000000001
   282   1      4.0780000000000003      22.429000000000002      18.351000000000003
   283   1      6.1170000000000009      20.390000000000001      18.351000000000003
   284   1      6.1170000000000009      22.429000000000002      16.312000000000001
   285   1      4.0780000000000003      20.390000000000001      20.390000000000001
   286   1      4.0780000000000003      22.429000000000002      22.429000000000002
   287   1      6.1170000000000009      20.390000000000001      22.429000000000002
   288   1      6.1170000000000009      22.429000000000002      20.390000000000001
   289   1      8.1560000000000006                       0                       0
   290   1      8.1560000000000006      2.0390000000000001      2.0390000000000001
   291   1                  10.195                       0      2.0390000000000001
   292   1                  10.195      2.0390000000000001                       0
   293   1      8.1560000000000006                       0      4.0780000000000003
   294   1      8.1560000000000006      2.0390000000000001      6.1170000000000009
   295   1                  10.195                       0      6.1170000000000009
   296   1                  10.195      2.0390000000000001      4.0780000000000003
   297   1      8.1560000000000006                       0      8.1560000000000006
   298   1      8.1560000000000006      2.0390000000000001                  10.195
   299   1                  10.195                       0                  10.195
   300   1                  10.195      2.0390000000000001      8.1560000000000006
   301   1      8.1560000000000006                       0      12.234000000000002
   302   1      8.1560000000000006      2.0390000000000001      14.273000000000001
   303   1                  10.195                       0      14.273000000000001
   304   1                  10.195      2.0390000000000001      12.234000000000002
   305   1      8.1560000000000006                       0      16.312000000000001
   306   1      8.1560000000000006      2.0390000000000001      18.351000000000003
   307   1                  10.195                       0      18.351000000000003
   308   1                  10.195      2.0390000000000001      16.312000000000001
   309   1      8.1560000000000006                       0      20.390000000000001
   310   1      8.1560000000000006      2.0390000000000001      22.429000000000002
   311   1                  10.195                       0      22.429000000000002
   312   1                  10.195      2.0390000000000001      20.390000000000001
   313   1      8.1560000000000006      4.0780000000000003                       0
   314   1      8.1560000000000006      6.1170000000000009      2.0390000000000001
   315   1                  10.195      4.0780000000000003      2.0390000000000001
   316   1                  10.195      6.1170000000000009                       0
   317   1      8.1560000000000006      4.0780000000000003      4.0780000000000003
   318   1      8.1560000000000006      6.1170000000000009      6.1170000000000009
   319   1                  10.195      4.0780000000000003      6.1170000000000009
   320   1                  10.195      6.1170000000000009      4.0780000000000003
   321   1      8.1560000000000006      4.0780000000000003      8.1560000000000006
   322   1      8.1560000000000006      6.1170000000000009                  10.195
   323   1                  10.195      4.0780000000000003                  10.195
   324   1                  10.195      6.1170000000000009      8.1560000000000006
   325   1      8.1560000000000006      4.0780000000000003      12.234000000000002
   326   1      8.1560000000000006      6.1170000000000009      14.273000000000001
   327   1                  10.195      4.0780000000000003      14.273000000000001
   328   1                  10.195      6.1170000000000009      12.234000000000002
   329   1      8.1560000000000006      4.0780000000000003      16.312000000000001
   330   1      8.1560000000000006      6.1170000000000009      18.351000000000003
   331   1                  10.195      4.0780000000000003      18.351000000000003
   332   1                  10.195      6.1170000000000009      16.312000000000001
   333   1      8.1560000000000006      4.0780000000000003      20.390000000000001
   334   1      8.1560000000000006      6.1170000000000009      22.429000000000002
   335   1                  10.195      4.0780000000000003      22.429000000000002
   336   1                  10.195      6.1170000000000009      20.390000000000001
   337   1      8.1560000000000006      8.1560000000000006                       0
   338   1      8.1560000000000006                  10.195      2.0390000000000001
   339   1                  10.195      8.1560000000000006      2.0390000000000001
   340   1                  10.195                  10.195                       0
   341   1      8.1560000000000006      8.1560000000000006      4.0780000000000003
   342   1      8.1560000000000006                  10.195      6.1170000000000009
   343   1                  10.195      8.1560000000000006      6.1170000000000009
   344   1                  10.195                  10.195      4.0780000000000003
   345   1      8.1560000000000006      8.1560000000000006      8.1560000000000006
   346   1      8.1560000000000006                  10.195                  10.195
   347   1                  10.195      8.1560000000000006                  10.195
   348   1                  10.195                  10.195      8.1560000000000006
   349   1      8.1560000000000006      8.1560000000000006      12.234000000000002
   350   1      8.1560000000000006                  10.195      14.273000000000001
   351   1                  10.195      8.1560000000000006      14.273000000000001
   352   1                  10.195                  10.195      12.234000000000002
   353   1      8.1560000000000006      8.1560000000000006      16.312000000000001
   354   1      8.1560000000000006                  10.195      18.351000000000003
   355   1                  10.195      8.1560000000000006      18.351000000000003
   356   1                  10.195                  10.195      16.312000000000001
   357   1      8.1560000000000006      8.1560000000000006      20.390000000000001
   358   1      8.1560000000000006                  10.195      22.429000000000002
   359   1                  10.195      8.1560000000000006      22.429000000000002