(written by ASE)

32592 atoms
2 atom types

0.0      60.701581630959176  xlo xhi
0.0      60.710603274881059  ylo yhi
0.0      123.31527996513701  zlo zhi

Atoms # atomic

     1   1    0.029796284229732635      1.6905073905987094      62.878765401858573
     2   1      1.3063779421653079      4.3378316226049094      62.884631266448245
     3   1   -0.037835254407008537    0.023621968941549647      65.251177974146515
     4   1      1.3899769025833768      2.5488626573610311      65.237431216335864
     5   1      1.4012960894006177     0.81962487200041478      67.582948710253945
     6   1   -0.069625910917849962      3.3725017433402096      67.504816646502789
     7   1   -0.066506807655873135      1.6213739020646964      69.922655207591504
     8   1      1.4616647310600948      4.2532568245685747       69.83109214836584
     9   1    0.078336017828975424   -0.020184428259563486      72.200910255632365
    10   1      1.3732294767564854      2.5140276757613345      72.225968683316722
    11   1      1.3702671605358336      0.7695536986180056      74.623586989502243
    12   1    0.023031505150775886      3.3959807822637642      74.509108919948076
    13   1    0.048916957340820466      1.6822292998271409      76.895231124738046
    14   1      1.3993450170611754      4.2346001954219892      76.877957484496036
    15   1    -0.14516661335309369   -0.029230126989271465      79.182490245576915
    16   1      1.4123720067059478      2.5649150674306807      79.241231965697423
    17   1       1.371011818901487     0.83544044946172957       81.60611804526269
    18   1   -0.046099418878209342      3.4498926663054537      81.554952206205769
    19   1    0.046901093385215434      1.7876423736745581      83.854612541845142
    20   1      1.4443356776977354      4.1351927322067743      83.912388023255602
    21   1    0.012472622359574373    0.001746181507000252      86.278042945140342
    22   1      1.4270075061721792      2.5160005952273803      86.321585712845589
    23   1      1.4080351841430516     0.78159459897965888      88.646311304651462
    24   1   0.0015798290521517157      3.3115367599528938      88.559163796743235
    25   1    0.021856933159620326      1.8035646085394388      90.962011450927861
    26   1       1.504512695914602      4.3062417140253801      90.911005622463065
    27   1  -0.0069788361987100263   -0.048840822086944298      93.266647777391981
    28   1      1.4295312683130759      2.4750692093529914      93.275115228448243
    29   1      1.4089382638670462     0.80521068831759057      95.583869739855459
    30   1   -0.053339250044628209      3.3321667686293872      95.582471930432504
    31   1    -0.02893736211991034      1.6917206642540459      98.002635836415749
    32   1      1.5225044332616613      4.1655302624967705      97.922739606586276
    33   1   -0.059273855799583157    0.082788230500029092      100.27053041407486
    34   1      1.5818530396251125      2.4495151220879952      100.25704970072262
    35   1      1.4632243255041784     0.80433209162832897      102.54681438635805
    36   1    0.029076980181366553      3.4139350675305784      102.65624184638686
    37   1    0.073520003356394317      1.7177642421251211      104.92023701102131
    38   1      1.3986439521274383      4.3119175916732164      104.84253750473732
    39   1   -0.015306467849617717    0.011004964989899578      107.25672682180119
    40   1      1.4458823014107713       2.552108379374372      107.24030826071085
    41   1      1.4007709957022343     0.83946610470900607      109.59111897260263
    42   1  -0.0070480257446444428      3.3002113368602441      109.60418831212145
    43   1    0.067812654690971627      1.8190944183086379      111.94702997365131
    44   1      1.4095677040755989      4.2827616484657831      112.01441145829993
    45   1    0.020475137151337475    0.050331738339458358      114.32277963742273
    46   1      1.4855249768560932      2.4577626337488305      114.31601756480376
    47   1      1.4392614995650403     0.82981508744982158      116.67706427386034
    48   1    0.015272817738268078      3.3753388513554832      116.65990082799486
    49   1  -0.0052273214355932551      1.6786288287200946      118.97526160970703
    50   1      1.4694385796892138      4.2476262557257227      118.95434607749151
    51   1    0.045744647793837613   0.0079662507202195223      121.32884282270516
    52   1      1.3540142758009579      2.5547171965383959      121.32250899563861
    53   1    0.024163026725355908      6.7585612738275165      62.869512001384479
    54   1      1.3933793417626605      9.2695765807703765      62.804794232226975
    55   1   -0.016389384786671422      5.1257290080835354      65.215878465019003
    56   1      1.4799408838913533      7.6545508606246981      65.130303913846106
    57   1      1.4640503408995393      5.9088286397733363      67.550983740949476
    58   1   0.0023064329686040132      8.4832501054411615      67.527207504204313
    59   1   -0.019299223284160918      6.7853455747761462      69.772812239097121
    60   1      1.4655184106140635      9.3381459340969641      69.825527183145738
    61   1    0.048085794290457395      5.0916334589952648      72.188557185105623
    62   1      1.4795144937925928      7.5256792445610241      72.252250746380668
    63   1      1.4448043396818302      5.8240126431727157      74.598183874734886
    64   1    0.006462683092507561      8.4023516163837577       74.55112921000439
    65   1     -0.1017182288785301      6.8015299929824637      76.929996721701599
    66   1      1.4410260005971052      9.2500305042825737      76.819146255901714
    67   1    0.095818403688267939      5.0716993059125244      79.191925310964081
    68   1      1.4577587926455122      7.5001932127399318      79.194430353153365
    69   1      1.4802109850237064      5.8770344704601056      81.614593968497914
    70   1   -0.047887399552143856      8.5353358629112108      81.576790015374712
    71   1   -0.063455529948077918      6.8215855666383076      83.892955912072068
    72   1      1.4396009876188149      9.1783685734537865      83.991555932951528
    73   1   -0.049500799702499244      5.0963771057933664      86.378418648570829
    74   1      1.4057310293582261      7.5935750142000966      86.264011404576109
    75   1      1.4051292361949903      5.9634411909782381      88.715491808456903
    76   1   -0.034847661114955401      8.4153950505037027       88.53490915430308
    77   1   -0.032747159665273751      6.6794936642322478      90.919922737372005
    78   1      1.4761505517625819      9.1649157617451102       90.86853996120206
    79   1    0.046457573974720792      5.0492397381755136      93.307344522217903
    80   1      1.4479416566832637      7.6468730417497168      93.301408900819496
    81   1      1.4377970677245699      5.8764183803514891      95.519356627739228
    82   1  -0.0099886277741960371      8.5040060797215133      95.517449754238555
    83   1   -0.001954042765901126      6.6935213507896103      97.933058952283645
    84   1      1.4543649605562523      9.2894430232100085      97.934378591487899
    85   1   -0.039178964494588991      5.0496352232495747       100.2366991207186
    86   1      1.3848698006806903      7.5050353873227289      100.29622889455375
    87   1      1.4489414216280814      5.9912928724016856       102.6848493703158
    88   1   -0.075242880142220941      8.4182578272068547      102.56082197530681
    89   1   -0.034581085348280034      6.7203442961757638      104.94550533402155
    90   1      1.4429076485835175      9.2790524252779765      104.92140330104272
    91   1    0.069630167472293836       4.930324353108678      107.33128828922648
    92   1      1.5194069420836565      7.6274591034975208      107.27656681182503
    93   1       1.379246472307176      5.9066248491430793      109.66383131140688
    94   1    0.056242811624941727      8.3862294745992134      109.62764162416443
    95   1   -0.095689123418015803      6.7108264838264997      111.95702539476508
    96   1      1.4694107031898413      9.2401682619803704      111.91995159707398
    97   1    0.017563947104453748      5.0800284918694052      114.21980658003697
    98   1      1.5093944322311561       7.618799450067721      114.30370086525433
    99   1      1.4568841813646525      5.8425513491256771      116.50110326314972
   100   1   -0.001153145669315988      8.4291796740280596      116.59756677748443
   101   1   -0.030973989478046523      6.7128414373638261      118.92882894664716
   102   1      1.4117048311192797      9.3161201595658536      119.01786614876983
   103   1   0.0092797407478418022      5.0134516519688042      121.31946791781328
   104   1      1.4588837336573972      7.4907356789504718      121.34716330021612
   105   1    0.078184689811530886      11.857656924809753      62.879960946584227
   106   1      1.4301228992956005       14.44095224895897      62.935841791064853
   107   1   -0.043649497617231026      10.046393679457426      65.218109396531531
   108   1      1.4708700242102819      12.651501072909211      65.174908365077926
   109   1      1.3988335611867075      10.954585545906832      67.563375559195634
   110   1    0.075231694726932863      13.486815609510913      67.563739012576093
   111   1   -0.064327691055301769      11.863469150417227      69.810411252539325
   112   1      1.5027781674251157      14.401210958010212      69.957791624632478
   113   1   -0.054786370145513165      10.072550878001856      72.229721100886948
   114   1      1.4377578213263889      12.718538126392446      72.139854697111815
   115   1      1.4207963989135657      10.899671961327371       74.55299911203798
   116   1   -0.038223731005014305      13.506443042253151      74.595145835376385
   117   1   -0.068882808364253298      11.883321784925183      76.838091262098985
   118   1      1.4393632138710337       14.39237194406835      76.884242662840137
   119   1   -0.079771695895477279      10.141483255495352      79.271285722917526
   120   1       1.546371846198634      12.586951749746303      79.229385621776501
   121   1       1.436490025103472      10.966893973991303      81.473874692294117
   122   1    0.067272207625850636      13.443709309078425      81.628889732999411
   123   1   -0.022951783903377741      11.829589611334853       83.94087150716598
   124   1       1.416069601791373      14.427020236910677      83.968927956897929
   125   1    0.030133647274589854      10.124456150622169      86.267964232693416
   126   1      1.4404901791326887       12.62733419812014        86.3093261829749
   127   1      1.4106256850933048      10.929211980135248      88.538333454308074
   128   1    0.070113641762054243      13.489612402734265      88.521941702152219
   129   1   -0.041011668403797732      11.807638001265055      90.973627596327134
   130   1       1.469088400276862      14.304456610895841      90.917338391978106
   131   1   -0.021785026648656086      10.122084101567989      93.309347538172119
   132   1      1.4111079050688209      12.703631492888155      93.165751416120656
   133   1       1.482825851538798      10.948552981625106      95.570846014937118
   134   1    0.049321013486347459      13.442887292691537      95.609319744599773
   135   1    0.055955301565443372      11.749071736303101      97.958427788981936
   136   1      1.4423563299383528      14.317972778106569      97.915204189059324
   137   1   -0.036199189833792091      10.131843514604023      100.21659937916394
   138   1      1.4443625032829037      12.666540601916115      100.37547889324955
   139   1      1.3611096727809753      11.075964793798908      102.65062029481109
   140   1    -0.03623504382119961      13.484588150343775      102.52199861520569
   141   1    -0.02460210120900469      11.844980172602163      104.97449513708045
   142   1      1.4739285314401451      14.353595437489792      105.02435117167302
   143   1    0.064367687677263738      10.136350722417902       107.2951881342384
   144   1      1.3958225072757444      12.646663793268285      107.27543963632601
   145   1      1.4921726819998913       10.98632617698124      109.59150874071953
   146   1   -0.032640943207359691      13.425510847339284      109.64236989892655
   147   1   -0.019494265453551412      11.764503999441999      111.87604873919187
   148   1      1.4526954311568745      14.305009913669622      111.93766989721789
   149   1     0.16336438130789166      10.110405991065681      114.20922877319798
   150   1      1.3105217265381597       12.58993087304794      114.25797016053177
   151   1      1.4996791908046936      10.905676650935519      116.73025615316573
   152   1   0.0024961422034038773      13.437063798829588      116.70977489163671
   153   1   -0.010679001710945702      11.886012873592836      118.91772490523158
   154   1      1.4167591863762028      14.339896603959057      118.95359586928046
   155   1    -0.01188786159109898      10.114710435030736      121.33142696195735
   156   1      1.4205695069278539      12.639270360344023      121.30293462099742
   157   1    0.018655577668023875      16.833582883085274      62.892449925963973
   158   1      1.4496428540857687      19.372504347440469      62.815306930826054
   159   1    0.024207331203802168      15.310874197507031      65.174235223661583
   160   1      1.4890349260936815       17.66539630956969       65.19662690450248
   161   1      1.5214588214949094      15.978643531433146       67.58461104536805
   162   1    -0.05924188298200285      18.502982979107095       67.56664192378355
   163   1   -0.014402522741476288      16.873409354299739      69.875658169435169
   164   1      1.4640832245924822      19.445210391124991      69.884777010453362
   165   1   -0.044704058445747916      15.173030262617537      72.262283251024968
   166   1      1.4589468063923652      17.713556157529677      72.166477307837042
   167   1      1.4026806174363036      16.072144850038256      74.548919391569726
   168   1   -0.036672431183620818      18.555640420307189      74.571824209818345
   169   1   -0.056021044250999297       16.83929823349245      76.850831531150121
   170   1      1.4347048302969654      19.391041547565564      76.859578320355823
   171   1   -0.037138596959441203      15.195535756098087      79.251973684402131
   172   1      1.4547809447587874      17.768053317241506      79.228032059879055
   173   1      1.4034741406977127      16.091262884631174      81.491132315627823
   174   1   -0.030413971506749644      18.618809660962242      81.560769439372137
   175   1    -0.17003206446524136       16.84750245535826      83.948786100057475
   176   1      1.5142177586480203      19.407134879965476      83.823069475442225
   177   1    0.022116341864169699      15.253091160736709      86.233141461408422
   178   1      1.3997270312525669      17.702919727420934      86.282411676300129
   179   1      1.6145162399529731      15.998603803104629      88.576766126821894
   180   1    0.098640676192985929      18.581355739335049      88.592032194457559
   181   1    0.034326164396307417      16.900100293511056       90.96295093381201
   182   1      1.4362105081387493      19.391258482674257      90.984369917621933
   183   1   -0.042539967281736896      15.086837242097152      93.191427648863666
   184   1      1.3884775104034264      17.809961806663406      93.232949075459857
   185   1      1.4335539477498063      15.908827845897317      95.594729867216842
   186   1      0.1137872754354355      18.602108208280988      95.628156426435297
   187   1    0.033447618846593703      16.775532330006172      97.929946766427463
   188   1      1.4860612458828333      19.455864290915702      97.927257387064728
   189   1   -0.088668820207968041      15.106273774849738      100.25335678843796
   190   1      1.4522708381778613      17.724621097247649      100.22716236699078
   191   1      1.5707649189718174      16.070495908436662      102.61852228591437
   192   1   -0.040759967179504843      18.542027584946023      102.62757252690676
   193   1   0.0065759518167430716      16.866218459032726      104.95141133722326
   194   1      1.4832275986165904      19.443866092866308      104.96498724608155
   195   1    0.066389341237752739      15.155419384133618      107.30195304417184
   196   1      1.5185253978096522      17.767955733530748      107.25862795788392
   197   1      1.4354925364856179      15.893519995378727       109.6238414929292
   198   1    -0.01992218777364041      18.629706610238493       109.6609312806177
   199   1   -0.009792068266327612      16.884880917030831      111.98812924463381
   200   1      1.4240262092646612      19.451543221317991      111.95459809178415
   201   1    0.037690562878089362      15.184452027235341       114.2368261845285
   202   1      1.5101366707638095      17.707791488788637      114.30244699455176
   203   1      1.4445248787490121       16.07117357606959      116.63363234223958
   204   1    0.066217732939086102      18.554741141755109      116.67311170826798
   205   1    0.059221498974253765      16.862552168609067      118.91628922355039
   206   1      1.4104873188926674      19.349339785768112      118.95828529365039
   207   1    -0.03820570196224865      15.116999301137445      121.35286326746078
   208   1      1.3771096032193142      17.775566490828641       121.2936811739952
   209   1    0.042728848120940216      21.889537781926752      62.850247035706971
   210   1      1.5148997043432066      24.481990420947074      62.954247605605204
   211   1     0.10954715231341748      20.227825313773081      65.275174093449436
   212   1      1.4577998195046913      22.780881046101701      65.226074661833294
   213   1      1.3762797347257847      21.098801300199348       67.61969901960407
   214   1   -0.028585062543975328      23.579686496864358      67.551872984846341
   215   1   -0.031741748855706402      21.926248065341706      69.921915577472646
   216   1      1.3981702312748732         24.451298069419      69.855939478672568
   217   1    0.032837862381602079      20.293531770390906      72.235664292310091
   218   1      1.4707250189443992      22.720952640145754      72.185200739699212
   219   1      1.4578619372045623      21.119646846392431      74.617275701396466
   220   1  -0.0072366772087463357      23.658650283939981      74.542745962538802
   221   1   -0.041857547065694549      21.932081257104034      76.919633504798554
   222   1      1.5517628254336702      24.500846454923874      76.896901573666568
   223   1  -0.0087977994274783863      20.267379043533449      79.255487087140168
   224   1      1.4444270004142166      22.738358416252193      79.260134015654401
   225   1      1.5341120030013757      21.179261985231488      81.484354852174604
   226   1  0.00010223330109238995      23.694073432784794      81.561011237164692
   227   1     0.10403985019941005      21.838117828030821      83.890598487783748
   228   1      1.4390352202280294      24.499203530938932      83.815937224203992
   229   1    0.022841678151019489      20.248593574692638      86.299123364186357
   230   1      1.4639937924158053       22.78019228200429      86.268457628514156
   231   1       1.452946349883135      21.024487186876978      88.575262162998357
   232   1   -0.014579817610172373      23.601065549162648      88.515565731087662
   233   1     0.03551872163177431      21.923939266459396      90.871880254903118
   234   1      1.4341329758660675      24.425444448319432      90.956033101157544
   235   1   0.0048389205450408848      20.260748398166779      93.277333773982548
   236   1       1.411386241754768      22.856358839791252       93.20255158557768
   237   1      1.4085683969129561      21.056116993739881      95.573886293770855
   238   1    0.042284383781496813      23.592552078975213      95.625880245055583
   239   1     0.03464722984312648      21.978717095573639      97.858792569706111
   240   1       1.516117268529878      24.466464415920562      97.913431004731976
   241   1    -0.10393466788779236      20.305133710032809      100.23116025223702
   242   1       1.492348985153245      22.751579676477007      100.23197494447652
   243   1      1.4779664181230301       21.09362590160756      102.51136727615409
   244   1   -0.017013352999220448      23.597430420918776      102.63999032565403
   245   1   -0.048104950009606427      21.969387349967796      104.96509333750984
   246   1      1.3581668726411109      24.379222089782857      105.06816902250921
   247   1   -0.012719720587177031      20.183870518926948      107.25203423606042
   248   1      1.4299493236584317      22.805638529268393      107.36059245862394
   249   1      1.3893599181421403      21.087483580978503      109.63388456353852
   250   1    0.058608025134099455      23.623470986744078      109.63798786514823
   251   1   -0.050269059581139197      21.953776615572131      111.95861332389056
   252   1      1.4503788787035725      24.397967464947349      111.94943232296693
   253   1    0.037847687486100408       20.29943199053427      114.26532560522801
   254   1      1.5038207613045143      22.760466032713481      114.19780927944817
   255   1      1.5072064170195358      21.110233189536025      116.59760382102007
   256   1   -0.040865664696663931      23.624325080343649      116.66462029944749
   257   1   -0.039699188021406491      21.993615564582438      119.02055288037775
   258   1      1.4643560503354798      24.522205108281366      119.01383966091232
   259   1  -0.0023596448515502185      20.263360503857037      121.30163869460554
   260   1      1.4784131294775451      22.759973940057748       121.3217609063544
   261   1    -0.05280963875591186      27.038274423860489      62.759992985281684
   262   1      1.5247447585139688      29.527195778909558      62.908414446667521
   263   1   -0.062543208657200464      25.336355235643733      65.252067230091455
   264   1      1.4912313392794598      27.772259882919546      65.178633208626536
   265   1      1.4346816851966306      26.193166400164941      67.532918298447569
   266   1   -0.050773193308619013      28.719924632518158      67.503338240400353
   267   1    0.015349314456402467      26.987396954003668      69.873728058087636
   268   1      1.4287189737815758      29.442838427546249      69.865250529783992
   269   1    0.013217412936920768       25.20005701900611      72.281976040541934
   270   1      1.4403462183506059      27.784261265156797      72.171299478755842
   271   1      1.4628146175542049      26.093746448282513      74.441900225769231
   272   1  -0.0018329079100943054      28.694577553466949      74.480757528708409
   273   1    0.032077731414154473       27.01086660230499      76.834573946191014
   274   1      1.5473006862034713      29.505655810103583      76.921002316681765
   275   1    -0.01203570474875131      25.344651756602595      79.243289431986852
   276   1      1.4083191318372661      27.859532204292545      79.221423826998603
   277   1      1.4046082421936883      26.104665434048506      81.540069840515102
   278   1    0.032374627492619629      28.631329074118288      81.438536498065091
   279   1   -0.064134305653533813      27.005128454309389      83.981802425251104
   280   1      1.3794361955517742      29.504905665378161      83.958422339859297
   281   1   -0.059421202983793879      25.307369361610942      86.305068716240072
   282   1      1.4776139018010324      27.844662338184232      86.273576858297218
   283   1      1.4614519350055541      26.125826179997002      88.595640171898808
   284   1    0.065398793284215481      28.656792011330591      88.714356750263079
   285   1    0.058645768706300033      26.985754075754219      90.986633627633339
   286   1      1.4991193920364028      29.498664843853092      90.935076358656673
   287   1   -0.096043204664747348      25.305654201190769      93.317085639400759
   288   1      1.4259933761558232      27.732966894227381      93.211919666572854
   289   1      1.4345731549462752      26.105886238711022          95.65242643677
   290   1   -0.084202623941399601       28.68458469433569      95.509610650042774
   291   1    0.016651767570422426      27.009145316418685      97.933855031531309
   292   1      1.5363702294272907      29.442435799563402      97.918342004389373
   293   1    0.017491663500700493      25.293487309041573      100.20711812845951
   294   1      1.3577748246096608      27.928915423855191      100.26448492465909
   295   1      1.3712962607276242      26.157954337964835      102.55028443952935
   296   1    0.011454122727068413      28.645976352027059      102.66855005700863
   297   1    0.019863676065496425      26.995046949199807      104.88867415877223
   298   1       1.418765696739904      29.580631879993977       104.9244933769879
   299   1   0.0094592719270558054      25.342370336707912      107.34484304743324
   300   1      1.4829028681104526      27.843584521378112      107.28942492458285
   301   1      1.4504181903031637       26.20314983107912       109.4936637724411
   302   1    0.019931967317678826      28.683568435496991      109.56481250011493
   303   1    -0.04731811242856547      26.997992088752131      111.97298654820163
   304   1      1.4323776309102434      29.524013294934427      111.90001716983315
   305   1   -0.049606131298885629      25.324227589873598      114.35592588674083
   306   1      1.4501665319913357      27.867926816917198      114.33047375000399
   307   1      1.4376066110527408       26.16090636392973        116.603839924309
   308   1    0.046686860351668358      28.726613324068261      116.65911994793817
   309   1    0.020805996390846453      26.942619698070473       118.9436960269511
   310   1      1.5310770559088585      29.500569732974725      119.03708435042985
   311   1    0.042822598515926583       25.28069425872685      121.36850691774016
   312   1      1.3733282374640032      27.712667829641976      121.31933266012921
   313   1    0.036475094378974796      32.064080111231007      62.903677184760717
   314   1      1.4287088949604441      34.602819642990461      62.884019143367063
   315   1   -0.016280985311888145      30.314209391465923      65.234725061023653
   316   1      1.3077776235693139      32.871985402716533      65.193608581763257
   317   1      1.5107524933996936      31.224153789072098      67.517691600978353
   318   1    0.035511878462208823       33.70968960765483       67.52100438140738
   319   1  -0.0063647160711117106       32.12121176972137       69.85614001055805
   320   1      1.6002980063326131      34.648922784627281      69.808173611358541
   321   1   -0.015543196409983064      30.398724114764427      72.224938115353638
   322   1      1.4880799914093603      32.858370428652528      72.206971050306038
   323   1      1.4770204712250212      31.232823049202441      74.463939931440137
   324   1   0.0066849511729265747      33.755929239478675      74.540719805854906
   325   1 -0.00041663957962021338      32.028236849523523      76.730019466860256
   326   1      1.4236895617838026      34.514214020909876      76.888006097557877
   327   1    0.029597152378769698      30.403762120484792      79.185432707356682
   328   1      1.4784921810235705        33.0553437629993      79.220055240187321
   329   1      1.3935017745848468       31.14007026431333      81.606716084917679
   330   1    0.033600027447098578      33.728162996748381      81.563188989918558
   331   1   -0.047674674039137444      32.089616144369707      83.989203879817865
   332   1      1.3786972052592121      34.569038396417902      83.910649826467591
   333   1   -0.027704620236547892       30.39602543988892      86.267559396043211
   334   1      1.4545116886563578      32.996324269503219      86.228684669473594
   335   1      1.4316328214108218       31.20602677185752      88.591392431031693
   336   1    0.018421572979841386      33.739943158668765      88.581113474798229
   337   1   -0.033954794350880987      32.068354724193931      90.948102085720024
   338   1      1.4602982220692109      34.547747861032086      90.889522181723535
   339   1   -0.020516289048156569      30.379804860438252      93.247170667500001
   340   1      1.4496828768342405      32.919532475508241      93.369752891501165
   341   1      1.3825144369125482       31.17432691388748      95.625266146187997
   342   1   -0.018489216258079678      33.714826540904696      95.599556163975365
   343   1    0.018607116912981819      32.053059515376972      97.960660949839152
   344   1      1.4276378927740827      34.595470662174158      97.984613281692148
   345   1   -0.023351207516864644         30.331259096061      100.27978025771509
   346   1      1.4168817830467793      32.796600605480165      100.27930820429873
   347   1       1.430851276029703      31.196925361390402      102.63503951147389
   348   1    0.087832682995073519      33.752967765277134      102.58744476838829
   349   1   -0.048508323162300332      31.975247120474585      104.92241105218314
   350   1      1.4127269361719537      34.628248979124379      104.95038531118621
   351   1    0.032240911547876977      30.332884003068298      107.28030721819057
   352   1      1.4692133956599804      32.917696090898801      107.35877918156613
   353   1      1.4257365566215838      31.129657143585025      109.65470876246835
   354   1    0.019067168192791493      33.673243558803691      109.65782905417348
   355   1    0.027697738578745912      31.940547542931863      111.96053875063838
   356   1      1.4409654020088771      34.596603882324125      112.01398698976394
   357   1   -0.025445873622385914      30.378340849021924      114.43638515667104
   358   1       1.434110044443182      32.930031487444886      114.19942618800835
   359   1      1.4184611458666248      31.281788051440937      116.64082672736342