(written by ASE)

8526 atoms
2 atom types

0.0      31.066736431430968  xlo xhi
0.0      31.066736431430968  ylo yhi
0.0      124.78999999999999  zlo zhi

Atoms # atomic

     1   1      1.4363969575059472      1.3818416461913687      64.123958239665399
     2   1   -0.062662722859707948    0.018884360801773071      66.070652930721351
     3   1      1.4146552520680389       1.444726997623683      68.084404617640132
     4   1    0.032636653678201503     0.09846270601167538      70.101419066476055
     5   1      1.4513669403753244      1.4296074012638889      72.121877016310236
     6   1    -0.18923502694191052     0.12887844996094006      74.241960891118524
     7   1      1.4007319687030586      1.3522021143912446      76.223159406878025
     8   1  -0.0081060410377637396    -0.04679542275634626      78.295161234681146
     9   1      1.3584924894903629      1.4733990272048094      80.278366345496622
    10   1    0.022468566961622569     0.06031538434090087      82.273285037523806
    11   1      1.3398722900342193      1.4161089463956027        84.2721232930692
    12   1   -0.052744481604211024   -0.021779601851313266      86.352844887628464
    13   1      1.4256205912238984      1.3463143705279963      88.302890155116074
    14   1    0.022572776172944849    0.090027075957945291      90.342826887852127
    15   1       1.393731903262543      1.3252202403898667      92.419880450893572
    16   1   -0.052546584462974215   -0.013707232690974009      94.442228281071792
    17   1      1.4712720326365305       1.412801038751099      96.420819697957938
    18   1    0.039159826658339614    -0.01733072562310288      98.518833821699886
    19   1      1.3974722892544407      1.4143098550410989      100.53503415226454
    20   1    0.083702235044701825    0.044077879883396426      102.55947412962703
    21   1      1.3786353793499411      1.4491453941746337      104.61120906829777
    22   1     0.05541718610911768    0.022811407286992071      106.61971657650454
    23   1      1.4125658452250967      1.4307625032623874      108.57084751003735
    24   1   -0.024004478675705723   0.0093084697121712662      110.63891859156291
    25   1      1.4292835011125071       1.455231121205061      112.61289267401598
    26   1   -0.079387868675863504    0.029199835676950059       114.7468704166148
    27   1       1.384089332877912      1.3722912207447007      116.67945399863798
    28   1  -0.0066457668870366377   -0.080005498020497362      118.78581956929646
    29   1      1.3621602826039252      1.4368537065792042      120.77091749654176
    30   1    0.056348246459594055   0.0052916254663497482      122.71999208158842
    31   1      1.4233543506715667        4.27410565297129      64.044490637903806
    32   1   -0.065916513609519542       2.766481570922442      66.083881585013032
    33   1       1.430330950678425      4.2837012240822308      68.082591166196792
    34   1   -0.092974508019991936      2.6780423742388919      70.126446548175764
    35   1      1.4749772550795404      4.2800246276187135      72.135811972331553
    36   1    -0.11372972453827364      2.8435235296099348      74.168586702006877
    37   1      1.4828824062186134      4.2332824450362718      76.173656310375151
    38   1    0.018756130594463245      2.7842419266477676      78.194272569983667
    39   1      1.4227098509942475      4.2133410839341261      80.215184237618942
    40   1    0.027947845478896588      2.8397651480046817      82.295488834778567
    41   1      1.4440081244791596      4.2167456846197684      84.308301661715149
    42   1    0.039267730393867509      2.8657522952156445      86.326035281210139
    43   1      1.3858781087390655      4.2198317042496374      88.317731490289361
    44   1    0.043182470139823292      2.8996033330407567      90.469457607711604
    45   1      1.3865900336087349      4.2861600333677998       92.44167298471794
    46   1    0.056864926616700201       2.797053167036335      94.433275890066028
    47   1       1.433893438313506      4.2228273425636598      96.435026964616924
    48   1     0.01849423510481887      2.8785994803679542       98.46046162816036
    49   1      1.4540367939516936      4.2116146599324447      100.50483711731343
    50   1   -0.013120136279122977      2.8376523549903987      102.58507819433009
    51   1      1.4323080703377031      4.1511635748051132      104.63239088985046
    52   1    0.020481339539026411      2.8683560528848018      106.56265313475626
    53   1      1.4352354344756617      4.3001680104976403      108.59994473036281
    54   1    0.041382461658228446      2.8393198218061957      110.60117418374593
    55   1      1.4839487668982638      4.2355312233924503      112.65922011392347
    56   1     0.13695647697776409       2.847092166895663      114.57160071266064
    57   1      1.3849337686935344      4.2395128613580644      116.72994227522464
    58   1   -0.028232805236426375      2.8177267771794781      118.74544566751959
    59   1      1.3598899895509577      4.2866642148251177      120.77378171482238
    60   1    0.003675806525373772      2.8112030151247174       122.8152209845704
    61   1      1.4432978948120303      7.0948001136132168      63.991806081724768
    62   1    0.029658524831365798      5.6356130057842106      66.112773846338555
    63   1      1.4906527872607991      7.0738165837698332      68.081831119200388
    64   1   -0.037605909547029685      5.5886494124270074      70.183843299572331
    65   1      1.4808919385025681      7.0586998630496449      72.201779676831691
    66   1    0.026216939196725794       5.651820033132573       74.26319246102527
    67   1      1.3362382076498345      7.0229245389289474      76.211316195517483
    68   1  -0.0091293484128634854      5.5848961266120849      78.256217008982858
    69   1      1.4383068588775014      7.0726977201400958      80.249753674456883
    70   1   -0.045263665306903511      5.6355466825001077      82.256021637312344
    71   1      1.3670259524522883       7.129186093050774       84.38051021072971
    72   1     -0.1254719032137136      5.6057145253449088      86.273094596062791
    73   1      1.3989088045293159      7.0617145056274646      88.403198232643049
    74   1    0.073197598472054981      5.6620782979691899      90.350845019004353
    75   1      1.4112909407019707      7.0742199260679728      92.441290346169964
    76   1   -0.074111469802518287      5.6604037171331605      94.505142591758158
    77   1      1.4403321238399101      7.0405624571552972      96.569725301031582
    78   1   -0.007539680522991957      5.6506157986456147      98.484298697422886
    79   1      1.4878944245811039       6.998842878567384      100.47855999417985
    80   1   -0.021792802496414496      5.7508968602214159      102.54787910023131
    81   1      1.4540326444312741      7.0417487655806559       104.6215983324287
    82   1   -0.064005056929689066      5.6291145854861773      106.60858087649379
    83   1      1.5384626197189677      7.0846058659707216      108.68352514664907
    84   1     0.11069472725444802      5.6849082031350431      110.70650849568382
    85   1      1.4477190787005418      7.0716605960014629      112.68177989002851
    86   1     0.04973087287267712      5.6349218246788828      114.65648828443507
    87   1      1.3358523988923707      7.0377817742371418      116.72977960269182
    88   1   -0.048554346566995199      5.5544673130772173      118.77761637767917
    89   1      1.4369637693261295      7.0865437974293011       120.6907182574185
    90   1    0.038582841412663924      5.6665761579691454      122.77499428640947
    91   1      1.3807901994619849      9.9101835383485355      64.042481710572204
    92   1    0.045683809042125698       8.465462898048191       66.10179652536597
    93   1      1.4231479147011532      9.9083974901266512      68.032657168075431
    94   1  -0.0011007475272341899      8.5585775568227564      70.151492333441539
    95   1      1.5011957557238382      9.7943640797556686      72.071062071747008
    96   1    0.066507282855548452      8.4486223438401513      74.104111578476704
    97   1      1.3966130386897164      9.9545581750234291      76.224140531126508
    98   1   -0.020676561763144769      8.5266939085879709      78.281251223507198
    99   1      1.3902842951915717      9.9435324058719718      80.218450140505567
   100   1   -0.015814415188333979      8.4311440425762836      82.342294561399612
   101   1      1.4329124093887673      9.9234414122947037       84.30132381931125
   102   1     0.10508921271458754      8.5314630975203851      86.256258262862744
   103   1      1.4516306857971435       9.926612097539504      88.324062778923746
   104   1   -0.018740216045007186      8.4510207633651113      90.368603528938834
   105   1      1.4559844469090248      9.9137324201199242      92.440604912774617
   106   1   -0.036569148313079447      8.4927992214416328      94.487379507460801
   107   1      1.3054074890204777      9.8547225782304526      96.447575460783241
   108   1  -0.0015245701802406417      8.5181519159318775      98.491376363271058
   109   1      1.4279394159957766      9.8324096484796932      100.53706047781785
   110   1    -0.01346868516896739      8.4810514449318859      102.52385438123774
   111   1      1.3070770942857093      9.9140963199765135      104.55651876661499
   112   1   0.0055083632655189571      8.3385823876149203      106.53634652433304
   113   1      1.4361417927896993      9.8914985691846642      108.64394531306566
   114   1   -0.063289925986013823       8.420471645338095      110.66654303389842
   115   1       1.372686642251268      9.8858909227662988      112.62425502899164
   116   1    0.031779001559357499      8.4250127169950471      114.74237621655735
   117   1      1.4026806559400922      9.9300868364439712      116.63736124732445
   118   1    0.043120738565541161      8.4826846517476522      118.72043743140847
   119   1      1.3924126725567532      9.8517887234510955      120.76170401352591
   120   1   0.0038542436322309957      8.4036142100813507        122.745630178985
   121   1      1.4691360721980289      12.680427638439829      64.044448751080452
   122   1    0.033931136857932517      11.288812709865258      66.090263095912221
   123   1       1.471405707524176       12.70692413408827      68.007380951392719
   124   1    0.016547950948032141      11.382898244222334      70.190045447495876
   125   1      1.4636966574406873       12.67639177435405      72.196590924415673
   126   1   -0.072913132983379661       11.35534196534476      74.158741222571976
   127   1       1.463393946245642      12.732252056653904      76.230481890504748
   128   1    0.091558491394162292      11.350842413532712      78.243613399628558
   129   1      1.3746704165681038      12.711538979210637      80.225839936053816
   130   1   -0.013770697933982804      11.301115327562263      82.416806589856023
   131   1       1.424796122753307       12.74245528673335      84.291903984476377
   132   1   -0.018924248690524476      11.293766582230885      86.418158037924272
   133   1      1.3398692420177631      12.738095451411752       88.39284486873477
   134   1   -0.075443550959667566      11.433095359793878      90.384594554620151
   135   1      1.4287081357828781      12.714703287291689      92.442337833543235
   136   1   -0.033429693857596358      11.288091407744167      94.395436869195024
   137   1      1.4016967255315251      12.734905297485517      96.499950282965486
   138   1    0.075930975936193315      11.344307875149735      98.488095727816486
   139   1      1.4882141375026208      12.747465599051255      100.58831171714235
   140   1   -0.051594109125588629      11.152196586915718       102.4876778191594
   141   1      1.4542323474054504      12.657397515667951      104.61019163868237
   142   1    0.042994968804251313      11.255190319859283      106.60564826034677
   143   1      1.3710682253630782       12.69083210028804      108.69733488974978
   144   1   -0.079442029570500047      11.238803757678985      110.63659765127684
   145   1      1.4441364684750819      12.706529117333734      112.57936661433907
   146   1   -0.029738694379989519      11.227845372717184      114.66600976861938
   147   1      1.4538222337706075      12.726690695976707      116.69774836076176
   148   1    0.034108402378722709      11.241073115364468      118.77230032766606
   149   1      1.5596449924501159      12.691365336056814      120.71507385928248
   150   1   -0.044784925644895501      11.288533708197152      122.78225376186212
   151   1      1.3544529798940894      15.574575172416729      64.031712462898042
   152   1   -0.066446296453537876      14.143003875239133      66.049070738630235
   153   1      1.3457817905782856      15.492931540992043      68.144326427120134
   154   1   -0.079382113076383917      14.146615758697674       70.07899051769482
   155   1      1.4026828634975907      15.585524265136172      72.341858267433608
   156   1   -0.039720199473470955      14.177494336598734      74.179732176344572
   157   1      1.3940245873915076        15.5484691925029      76.232050290700016
   158   1     0.15894892473795352      14.104541304472246      78.218653290947785
   159   1      1.3226512100731371      15.535077922225202      80.241535693593192
   160   1   -0.059020950527626681      14.162950072829759      82.285041103791542
   161   1      1.3528562556608714      15.564288935479649      84.283483943487056
   162   1   -0.037389665457391447      14.129658224702162      86.401983187935045
   163   1      1.4272765703374277      15.520046601290444      88.333523074984257
   164   1     -0.0108071198769146      14.191638148554942      90.302095416404086
   165   1      1.3881602465141987      15.457897004235674      92.507231722634643
   166   1    0.011538044431022548      14.144390062910855      94.498212813733218
   167   1      1.4059491484333519      15.645730695546483       96.47822100201671
   168   1   -0.077117878519776389      14.232453142668762      98.410844408592865
   169   1      1.4233675529904852      15.483732390614147      100.46513126391883
   170   1   -0.028098947765486777      14.060203948670816       102.5762563481302
   171   1      1.5412392218612851       15.58281730472901      104.57346655032775
   172   1   -0.012548056746888671      14.149299751344065      106.67952096037136
   173   1      1.3858194722892889      15.478453521927905      108.56982148281287
   174   1   -0.011437211677089309      14.088988573798073      110.57147169360621
   175   1      1.3692259730711818      15.526054020046523      112.66657772150654
   176   1   -0.098015386398876317      14.167791029064961      114.56877268307437
   177   1      1.3763895605181338      15.550013222538158      116.70607220125989
   178   1      0.1061347243797512      14.032786092147127       118.8461450280827
   179   1      1.3328060010863805      15.508074166731266      120.76798200261942
   180   1   -0.016739046581973525      13.984988783432268      122.91787458835232
   181   1      1.4331768611033673      18.408055600639557      64.147672199296352
   182   1    0.024663392396458924      17.067084044276047      66.009563151770507
   183   1      1.4356883802224494      18.367317793686595      68.065006080945096
   184   1   -0.011199601971095326      17.003063036828514      70.158646625599673
   185   1      1.3502093416257814      18.416129526499979      72.204888671332682
   186   1     0.14973991889836666      16.965375599390786      74.196434303822087
   187   1       1.393943967993498      18.354868534656653      76.215881806402962
   188   1     0.02312527799461785      16.924464611160602      78.184411196334736
   189   1      1.3693160550989463      18.428306806229585      80.293122537568237
   190   1    0.079537373318766466      16.937619201817899      82.341392407781669
   191   1       1.392622513652501      18.346887909545561       84.26700254186612
   192   1    0.046499106730246043      16.958715978377889      86.352387341683155
   193   1       1.461651309182048       18.47215638902194      88.410049486707805
   194   1   -0.060028406848095073      16.977513689013016      90.297604732548422
   195   1      1.3639236949978903      18.481272011568983      92.380653579901761
   196   1    0.015405649160965429      16.991600231112901      94.403437761759236
   197   1      1.3191157008522052      18.277948874716159       96.49097804982614
   198   1    -0.04729959732268188      16.959538484762167      98.445187321119818
   199   1       1.339272192729239      18.284496345053711      100.49816994880369
   200   1  -0.0079301954792833085      16.930063082806974      102.48046498001804
   201   1      1.3442862931459896      18.316051375256215      104.60911212911759
   202   1  0.00076210332423238907      16.893587167285748      106.65293000723143
   203   1      1.4503152074090393      18.348928388289817      108.57677497344366
   204   1    0.032942577533973769      16.943303328995334      110.68884300895493
   205   1      1.4162804538289453       18.38829083118879       112.6652110514764
   206   1    0.040884444805432574      16.894318971821971      114.67124060515327
   207   1      1.4763099212441972      18.413525690340986      116.70847552827449
   208   1   -0.039835167952809385      17.011277014401067      118.67343758283042
   209   1      1.5293277991095557      18.416967790608634      120.68083051126966
   210   1    0.043381735672846033      16.892653661866834      122.87158756534711
   211   1      1.3936288479292351      21.243025833190199      64.034093300641317
   212   1   -0.080424412916238155      19.845400795969692      66.104432776835012
   213   1      1.3838743537747054      21.154533075544457      68.182495377824068
   214   1    0.032518274401787603      19.771009675702988      70.034007713317067
   215   1      1.4831480679722429      21.239460622870663      72.237006920163324
   216   1    0.018095469697357588      19.871136705215044      74.206727483158616
   217   1      1.4484166952166428       21.02004060754297      76.173850120906366
   218   1    0.010199866923184666      19.779371809360487      78.139288159824176
   219   1      1.3955969870810547      21.094422801040817      80.233251479209699
   220   1 -0.00081679075936836199      19.854899826001912      82.308705734818062
   221   1      1.3974205505739654      21.203039660727679      84.329776793983754
   222   1   -0.034347811686463108      19.698007303843955      86.339964534472443
   223   1       1.421414069414995      21.221213114437095      88.358272805255481
   224   1    0.046896360085023542       19.75640542099223      90.381414439959585
   225   1      1.3903514026675086      21.280151817816446      92.433906468617664
   226   1   0.0063140069101270627      19.777477533016413      94.405389401965763
   227   1      1.3666750583896794      21.156263214777969      96.458110730557607
   228   1    0.016354011087611978      19.779345634282784      98.545037572107347
   229   1      1.3393357014651379      21.169430881878647      100.45893795873829
   230   1   -0.039431646934327852      19.751491209435166      102.61322135896411
   231   1      1.4570195493778517      21.113287093250968      104.56161371042147
   232   1   0.0045516663149934682      19.706044272994994      106.66287841346472
   233   1       1.496572042767073      21.218764716198347      108.63514337758505
   234   1   -0.041907534848416778      19.804211037148448      110.63417026752964
   235   1      1.4488814394550915      21.182278735886729      112.73517654195619
   236   1   -0.055843694535709802      19.837065539995347       114.6709944202438
   237   1      1.3493464210938819       21.10488467767285      116.71507432635539
   238   1   0.0039411287755059757      19.764027672779925      118.70422661668566
   239   1      1.3594023572904892      21.163618253570615      120.82374566184011
   240   1   -0.060956700337187433      19.785947253196071      122.80103476641843
   241   1      1.3925568472783174      23.962325116652515      64.039479424583106
   242   1  -0.0083139286678884199      22.636643922795113      66.067371131971598
   243   1      1.4610035518696514      23.944600288397115      68.103834081261567
   244   1    -0.01374596298377632      22.589500219934521      70.155208451900307
   245   1      1.3681271487404436      24.051270179370807      72.104950209555227
   246   1   -0.051120709048297498      22.542681557466569      74.159392681797186
   247   1      1.3904666922514695      23.996029553461462      76.127592968299879
   248   1  -0.0018050543942975169      22.712526558872561       78.23865779549989
   249   1      1.4181228574918203      23.941041487044409      80.298163597513778
   250   1   -0.072156945109091361      22.590418955309929      82.262422224532557
   251   1      1.3791263700199523      24.087888402846545      84.282760586335655
   252   1     0.04610571933515091      22.673717997689817      86.343355393708464
   253   1      1.3412303452193608      23.971399902321956      88.390027587207257
   254   1   0.0054255313399680016      22.643265362961856      90.418908985114456
   255   1      1.3966741410382919      23.937054713269706      92.373411450497514
   256   1   -0.033782447658389746      22.567925803079589      94.422288147743046
   257   1      1.3643238890235461      24.047690481184571      96.450647601536247
   258   1    0.035284268469606785      22.652859864033108      98.481405080969893
   259   1      1.4124268345235467      24.029564630224552      100.51923824225068
   260   1    0.011642312172107318      22.533116492448222      102.52460685588751
   261   1       1.394307434240476      23.993721754806121       104.5529705595854
   262   1    0.045986726583778378      22.577710850042841      106.57502133578741
   263   1      1.4314942277756375      23.999347378253105      108.60994860745333
   264   1    0.041890791620359004      22.584221250948779      110.60863919808327
   265   1      1.4697914621499337       24.03473093515704      112.64341595771857
   266   1    0.071318489946288782      22.593221539542565      114.76731734761533
   267   1      1.2834732490215539      24.070796245035552      116.77920386391762
   268   1   -0.037854367834613767      22.583109467479296      118.77042317179341
   269   1      1.4168379880619764      23.964319364722421      120.80657030120089
   270   1    -0.08371634262720945       22.59045210830477      122.76350272490639
   271   1      1.4400734019566672      26.817178676309982      64.015052527799782
   272   1    0.031074905121317328      25.430086494690318      66.066479748171858
   273   1      1.3754499869928818      26.838420315512995      68.048000679121444
   274   1   -0.014774145290812663      25.501001081489608      70.089355207992071
   275   1      1.4375826608867919      26.758336736497132      72.246123454220253
   276   1   -0.051312724359061548       25.42942997921363      74.280009055992437
   277   1      1.3111120029692056      26.854594934374436      76.177897097416363
   278   1   0.0037434174993221923        25.4259020396827      78.238769005514797
   279   1      1.4026177099564883      26.833856098822423       80.19585678399676
   280   1   -0.091604078107990761      25.420864145531727      82.233998593364575
   281   1      1.5009131951720303      26.779321642494764      84.310778109074235
   282   1    0.044580424080181459      25.380968649736268      86.385304122115102
   283   1       1.458783395244355      26.824414459564476      88.309823652307003
   284   1    0.033340028277772625      25.441822905307589      90.331477723954805
   285   1      1.3743131984464663      26.813343701801248      92.350917863101287
   286   1    0.015151042640295945      25.436469301226253      94.477050688623464
   287   1      1.4019660882826919      26.827308107088808      96.518000572923711
   288   1   -0.061982676932762409      25.528646263501777      98.566204070600932
   289   1      1.4444457992259085      26.784180350238579      100.53683047463986
   290   1   -0.049223428111618089       25.45387938329522      102.54729798127934
   291   1      1.3789131542499251      26.771048467770918      104.66248813547004
   292   1   -0.032746524069026069      25.448910234066869      106.56739483569439
   293   1      1.3733146312708246      26.865702801740078      108.61506852153906
   294   1    0.072371234956342095      25.351970015723204      110.59086719894667
   295   1      1.4140089891519554      26.912615288470484      112.62832637932812
   296   1   0.0021076807133197603      25.420550835447663       114.7353016140666
   297   1      1.4253902158440632      26.818743580665338      116.74132247331609
   298   1    0.026843299261280169      25.396619618351373      118.74137752145717
   299   1      1.4623184585784088      26.863158638174269      120.77285399974495
   300   1    0.058111454640158128      25.415281483039355      122.79098426614414
   301   1      1.3244743119582667      29.548085577399764      63.932113410973798
   302   1   0.0065797290597983523      28.280494932758632      66.096131410877533
   303   1      1.4728443250187093      29.621312480942095      68.093257350955369
   304   1    0.064874210309912209      28.152491515673304       70.18826980585014
   305   1      1.4588820790157664      29.581226746064488      72.198393108103332
   306   1   -0.081993960820309353      28.285174177540085      74.275889450719887
   307   1      1.3253613438976712      29.601317574955306       76.19817294438468
   308   1     0.14598238768591995      28.226544933236948      78.159986544716801
   309   1      1.3831733385445584      29.615996974236086      80.258593538652519
   310   1   -0.011581310898454459      28.301495991161023      82.304251215466707
   311   1      1.3970306160672683      29.724014532810642      84.351945535874066
   312   1   -0.010678197130960656      28.194648657902803      86.381933640419447
   313   1      1.4436734505745195      29.631107838903173      88.374695636881086
   314   1   -0.074096429774770795      28.198367675869484      90.408754224146932
   315   1      1.4963311330958307      29.663277593903519      92.451336284245158
   316   1    0.044115295216806426      28.251841237063584      94.430955247630166
   317   1      1.3731751114099344      29.582763905868184      96.450855790985116
   318   1     0.12535366669760692      28.287971513940739      98.458238068079453
   319   1      1.4009826409441706      29.636212484091619      100.54874174984859
   320   1 -0.00021693305306874405      28.239785752784851      102.57052247472311
   321   1      1.4594765664962759      29.683768547244437      104.63524062298121
   322   1    0.046961136307815537      28.236877152850692      106.54191212230995
   323   1      1.3811112881577934      29.618301730069195      108.69675325454962
   324   1   -0.026214896720309695      28.233772303091346      110.66372797124646
   325   1      1.4882674383129553      29.651986584805712      112.82328828115016
   326   1    0.089309278948103532      28.259536554737082      114.77653793826259
   327   1      1.3635107430355509      29.723434697450202      116.76871737512209
   328   1    0.060595371139018021      28.200513529618728       118.7812990014818
   329   1      1.5042024426943208      29.685929148461863      120.84263401778307
   330   1    0.013325704621413387      28.283535820874146      122.74471687265647
   331   1       4.202937375126079      1.5164794494965117      64.099315471668945
   332   1      2.8268307929609655    0.044871999937038311       66.13673105503635
   333   1      4.1740531832997032      1.3737765102250132      68.129336375385037
   334   1      2.8275704551829404     0.03667181721300302      70.208992969961443
   335   1      4.3387378549029094      1.4801625571087156      72.128158615345143
   336   1      2.7426578778712982   -0.056609856616192937      74.186889916564468
   337   1      4.3511091539080518      1.3988360324828282      76.223275653742306
   338   1      2.8062833055405925    0.044516836424429211      78.287543718300356
   339   1      4.2766213938827233      1.4341975485252261      80.229362574905878
   340   1      2.7468809170395656    0.021102281094405127      82.158843863676609
   341   1      4.2457534825384835      1.4597259383289527      84.348131483311164
   342   1      2.8141198917245136   -0.052135508770350197      86.288677041250111
   343   1      4.2619019309053723      1.4221062054193685      88.369202396659801
   344   1      2.8296061261724428   -0.026561467753101017      90.316292632647631
   345   1      4.1718588900353506      1.4926781576667216      92.440710601087119
   346   1      2.8017022848713231   -0.056490842585069978      94.458184085229703
   347   1      4.3133209135080426      1.4103501143926096       96.47537266617212
   348   1      2.8493998190220386   -0.063681198216409884       98.48557252311042
   349   1       4.175163768184774      1.4354515579456084      100.45232934067913
   350   1      2.7961131361583949    0.012710846570854981      102.53870986498097
   351   1      4.2401895966616756      1.4614913733560442      104.60987043680761
   352   1      2.8522261389561216    0.042737539391518503      106.53517673092733
   353   1      4.2523405601283422      1.3989544440261517      108.64900195155971
   354   1      2.8031757641824981  -0.0063832813659147787      110.59184323150517
   355   1      4.2527751645710232      1.3761392346529953      112.69408779502548
   356   1      2.8391451390451299    0.032567479449935037      114.58156299784446
   357   1      4.2334915965803432      1.2836504732632357       116.6918635914156
   358   1      2.8815418193123037  -0.0020647480131503562      118.77048569403343
   359   1      4.1602776815967015      1.4278307428940775      120.83596400189768