(written by ASE)

32814 atoms
2 atom types

0.0      60.701581630959176  xlo xhi
0.0      60.701581630959176  ylo yhi
0.0      124.78999999999999  zlo zhi

Atoms # atomic

     1   1      1.4290006386080927      1.4440153194730223      64.062236172075714
     2   1    0.073225317439371773     0.08857920297258054      66.038958701184399
     3   1      1.5413942940427743      1.4710532257531421      68.151423851213991
     4   1     -0.1157765769440436    0.048782961009510434      70.121800060567537
     5   1      1.5411211642415152       1.505440670777656      72.152673358489849
     6   1    0.004945127731427793    0.033753458704215568      74.202396082965052
     7   1      1.4548025038271388      1.4710475742905846       76.31943615863311
     8   1    0.026483059460856134    0.015534732119944451      78.268804262894776
     9   1      1.4621235809902657      1.4208216990419451      80.239411111853897
    10   1  -0.0099663878282265292  -0.0095370659778070219      82.197801100334573
    11   1      1.4452751100116334      1.4260975023368616      84.314293681813751
    12   1   -0.055488584908073318    0.010586192032620574      86.325458245897593
    13   1      1.5540013817437617      1.4411673205886408      88.319567572080032
    14   1    -0.05048965112787266    0.034868616081815122      90.375956017585949
    15   1      1.4512037256460049       1.521345634587286      92.345581028006436
    16   1    0.036375602173954573    0.015225293513327279      94.347255201573077
    17   1      1.4354248513468293      1.4689995383788506      96.481809616947899
    18   1    0.019702805666028278    0.075935729759294274      98.541656365166901
    19   1      1.4365124334440906      1.4773383008909566      100.46793285576418
    20   1   -0.029052008329612956   -0.037982754970686726      102.62345711683946
    21   1       1.453827056611307      1.4746708697311042      104.56566364789843
    22   1   -0.018424232885016323   -0.017732366893578055      106.58489221541173
    23   1      1.3633519376799912      1.4106202403899297      108.69264900664702
    24   1   -0.044132668461824565    -0.04895666478896539       110.7822727932455
    25   1      1.4353392937515497      1.3541325820135357      112.61244192092545
    26   1    0.057265035591754977   -0.090173202185562074      114.73970672536866
    27   1      1.3465392255458455      1.5277557370267241      116.69669840469886
    28   1    0.088726158506106045    0.024022879454104886      118.67331522072723
    29   1      1.4025683037370493      1.4657760422800792      120.85218827996599
    30   1   -0.024658566109996255  -0.0089792645879499724      122.85482434644975
    31   1       1.459341189697706      4.3414493547273558      64.130399687111435
    32   1   -0.073454818647965242      2.9067203072752741      66.028576576938008
    33   1      1.4163564561823685       4.433153806913654      68.145120319948902
    34   1   -0.058690824927692557       2.894963472561376      70.167353166524933
    35   1      1.4236747521105388       4.222270772695361      72.118809128914052
    36   1   0.0078098083179154124       2.826449412942416      74.264325512853659
    37   1      1.5149261033472312      4.3311258860802999      76.223894704489751
    38   1   -0.038071974450864909      2.9380394367797567      78.189886864129889
    39   1      1.4668971228183132      4.3758324208148309      80.296613749919459
    40   1   -0.052563112899402478      2.9397272858806001      82.339445846391499
    41   1      1.4679359624045063      4.4437306851365435      84.358358860682614
    42   1      0.1068000442372868      2.9483130831885314      86.334743415541212
    43   1       1.401610788829935      4.4036137351787259      88.400251082592035
    44   1    0.010047646778199807      2.9361481856538236      90.368618909777155
    45   1       1.435802755259906      4.3520560524851044       92.36969678540855
    46   1    0.014884240655322321       2.927903855484244      94.533283329337422
    47   1      1.4834784352538828      4.3254855049626224      96.438445773561753
    48   1   -0.057583614951957379      2.9221101353809478      98.525495973094195
    49   1      1.3252034197368314      4.3710003977078538      100.54081342636657
    50   1   -0.013946985987161393      2.8315613379182074      102.61475011220834
    51   1      1.4819530646323325      4.2252898425807217       104.4826332180027
    52   1     0.08596511940253676      2.9256871096922259       106.7159984598303
    53   1      1.4165308708792406      4.3057794138360483      108.64370546678586
    54   1    0.010102911182898987       2.897913000812872      110.66321232943247
    55   1      1.4038270433506703      4.3757940465121941      112.68975780979629
    56   1    0.022210395174044297       2.920566266805857      114.69046476820495
    57   1      1.4064983994764195      4.3057432267873859      116.69185328028485
    58   1    0.038744540215364304      2.9036815429895757      118.73817882214792
    59   1      1.4568958521343758      4.3699343788554277      120.78123590472185
    60   1    0.050784849680549964      2.8775647285552743      122.79118548894861
    61   1      1.4331063800108241      7.2363764297520223      64.043370298491553
    62   1    0.045610299713586711      5.7622951792206889      66.113899252919495
    63   1      1.3874724822168047      7.2330000844123692      68.167877357629337
    64   1    0.014094758446498363      5.8117707739548692      70.189948167770311
    65   1       1.440320149820741      7.2126753775713937      72.137528270939399
    66   1     0.14227723471701936      5.8205418501359087      74.158697211138758
    67   1      1.4582807820613224      7.2776744267048965      76.193781817416422
    68   1     0.11815032173791179      5.8671264108069154      78.228965879893039
    69   1      1.3946064138924468      7.2313843427422846      80.292880766466283
    70   1    0.016508055280755132      5.7858659730003854       82.42255457544276
    71   1      1.3651964789434896      7.2081528648679312      84.318521666983798
    72   1   -0.068348948297455511      5.8580846584756685      86.392402918675884
    73   1      1.3967881226135059      7.1812515641412098      88.379440012089532
    74   1    0.027622346239526186      5.7792162027142631      90.432665923588942
    75   1      1.5972095125495525       7.185840746259367      92.445583320818329
    76   1   -0.042440184634288475      5.8015855757374668      94.444847261619969
    77   1      1.4861492974832067      7.2254945250560771      96.454666905646647
    78   1     0.01074725057381201      5.8769366945926542      98.554398943036475
    79   1        1.44390234087832      7.3124934492668938      100.44773756235871
    80   1    0.060484690755818055      5.8099734175168667      102.56112358111392
    81   1      1.5391163074977385      7.2793655904166927      104.63922505312185
    82   1    0.031424133781211387       5.875586684301215      106.52365349265143
    83   1      1.4702551515486606      7.2118744885779993      108.58387304902703
    84   1     0.17484787061386209      5.7932850404124867      110.66371037188432
    85   1      1.3782785928169172      7.2855887979296439      112.63663542224006
    86   1    0.016630668624805191      5.7695271782104998      114.57576717232473
    87   1      1.5508891924039039      7.1380009347087539      116.71088051460261
    88   1   -0.067702401363501669      5.7816246808997933      118.88316749721218
    89   1      1.4601232378111662      7.2449177464265695      120.78890272051886
    90   1     0.13061271067463778       5.816385855669294      122.81501520898668
    91   1      1.3418855403953507      10.143121566898445      64.087082041464996
    92   1    0.057291191719174794      8.6554996010956859      66.130020488294093
    93   1      1.4421765800224084      10.164698997746541       68.07859590617575
    94   1    0.017741429792541636      8.6645457988676977      70.083060011061008
    95   1      1.4215182960373829      10.150961536584093      72.134738291111745
    96   1   -0.024339225697523829      8.7115321747349732      74.214191767484564
    97   1      1.5013415066420359      10.015630026115822      76.252058635007103
    98   1    0.046394984761848605      8.6521777526426522       78.26599992432449
    99   1      1.3966385724929731      10.058782695038857      80.369938241880362
   100   1    0.012073140831378781      8.6252832319511459      82.361651526115025
   101   1      1.4842695977635847      10.037167899508329       84.33946220062775
   102   1    0.077195090632160623      8.6208928336726185      86.426903674625905
   103   1      1.4092568301020882      10.188470425324542      88.432060014860298
   104   1   -0.015751803570602657      8.7042657501207028      90.298630083195164
   105   1      1.4631288756095351      10.122286276238603      92.475610151797369
   106   1   -0.055744251044579841      8.6906165022557076      94.486031818344912
   107   1      1.5527564409625503      10.144337064215209      96.458891333653369
   108   1   -0.037493075440651176       8.583767880167418      98.456888732114734
   109   1      1.4499076704677893      10.083114166990109      100.53613387384958
   110   1    0.022196245549067836      8.6648730351947663      102.47453106148872
   111   1      1.4612809990348601      10.127023945948316      104.56260239673675
   112   1   -0.039344177104546657       8.695547202345363      106.64033421145108
   113   1      1.4406519559675213      9.9941041491373994      108.72062126528493
   114   1     0.13500224289617721      8.7093964098365948      110.51638109579243
   115   1      1.4054047962231044      10.085377357366539      112.63178310262218
   116   1   0.0045598542232189723      8.6169821205269717        114.665815359196
   117   1      1.5311290390078389      10.179633064653759      116.72090864276804
   118   1    0.025442610908054577      8.6489251609917801      118.70760747759711
   119   1      1.4387944677064792      10.109224624628606      120.74620149718753
   120   1   -0.047819995275393316      8.6856215087475448      122.81988465413062
   121   1      1.4293659524001656      12.863145478320797      64.080679219127049
   122   1   -0.026090122027172785      11.609249557310692      66.127703859195663
   123   1      1.4857152697558629      12.962134169251023      68.186210744369788
   124   1    -0.10437820632679816      11.543474476536147      70.154610586580674
   125   1      1.4846414707956439      12.997829828349488        72.1861905403658
   126   1   -0.001502359533033514      11.656580725829915      74.171709451779122
   127   1      1.5214268138246829      13.059457947418672      76.299539368466981
   128   1     0.16554782975813981      11.633783467726245      78.213102117727615
   129   1      1.4772665431182173       12.98326545589082      80.283233282030267
   130   1   -0.043787347496611874      11.691160820353595      82.329996470635294
   131   1      1.4701890512553994      12.992714288717012      84.316850545622756
   132   1     0.01428006346593275      11.424307467413742      86.288312967202742
   133   1      1.4678316947104828      13.086435366867352      88.335791473059984
   134   1   -0.025619175185400224        11.6501253359693      90.427577483316227
   135   1      1.4683803545466583      13.069042034144262      92.454621496199863
   136   1 -0.00082053082377228593      11.595175021249252      94.513545647922626
   137   1      1.4166866207868485      13.010838970644429      96.466742735009987
   138   1   -0.023157158010436288      11.638523625071569      98.493517601238366
   139   1      1.4755153839933404      12.988969602680619      100.45481397477148
   140   1   -0.031913794305445171      11.455938949677693      102.56604402340686
   141   1      1.3600144241218564      13.029375351927355      104.64433868510005
   142   1   -0.063398099825633158      11.575191070856414      106.58286833937403
   143   1      1.4746534026430043      13.057592553331602      108.58548983105645
   144   1   -0.011269105098325641      11.605446064521178      110.64145477131926
   145   1      1.3920513273871882      13.010231768039073      112.70746345022631
   146   1    0.022259824582315554      11.587064686768185      114.68925667013094
   147   1      1.4695141445705393      13.097940995190342      116.72546270584996
   148   1   -0.026024335026744033      11.546029913101993      118.72672853483638
   149   1      1.4090144234138471      13.050881133970039      120.70002984742581
   150   1   -0.015627130305334535      11.588228691290238      122.87569753657715
   151   1      1.3949642981325445      15.905816967922084      64.057507549772353
   152   1   -0.036769483127310189      14.348434778247517      66.008377706707094
   153   1      1.4426024107475692       15.87560169856177      68.149228619702981
   154   1  -0.0070782205278652963      14.438197529252042      70.144967098697009
   155   1      1.3679747348554654      15.902993506461563      72.064585997705407
   156   1   -0.040469237147646012      14.481058215300299       74.09889417961665
   157   1      1.4289987806072821      15.820041188565115      76.242336712218858
   158   1   -0.017211298548445761      14.465250814312755      78.206064939563632
   159   1      1.4270940493667481      15.853557100434777      80.206711083200162
   160   1    0.031600580884126907      14.442310920256965      82.197898792868685
   161   1      1.4423503564509272      15.967046256289905      84.360598317202403
   162   1   -0.027540048805422591      14.512895957301637       86.39552833517493
   163   1      1.4257435121924382      15.878676969086319      88.442457721956899
   164   1  -0.0043318275738962958      14.458458874115069      90.416299397067533
   165   1      1.4569040818870049      15.901280233980932      92.541493127624193
   166   1    0.042467728473817815      14.406769718587832      94.381328614920463
   167   1      1.4563766911400977      15.902409671535157      96.509769683600311
   168   1    0.019326701153691353      14.463968932372639      98.463885685002182
   169   1      1.4994465991186001      15.906341667485346      100.54472388945229
   170   1   -0.019837563713221661      14.455608985929189      102.60310217488923
   171   1       1.517023426298423      15.969377642890841      104.55642872211661
   172   1    0.017314462482200404       14.47759781566643      106.55576365945156
   173   1      1.4576443352629846      15.901966035797102       108.6450630766699
   174   1    0.093825874688290234      14.509418691531952      110.56570133820664
   175   1      1.3861353592487673      15.911672360226179      112.68011955891248
   176   1   -0.043105064733293619      14.488728863767975      114.73437507483092
   177   1      1.4069820424811166      15.926123226005263      116.71549110793272
   178   1   -0.014918289710607564      14.514416631821083      118.71068353938043
   179   1      1.4718266113359926      15.882528533775686      120.70812462038413
   180   1    0.033150041944311454      14.510898014613741      122.73698625464162
   181   1      1.4228541786412301      18.761419570465019      64.094889692049904
   182   1   -0.066576612556232206      17.273529741049263      65.997072697964143
   183   1      1.3558174556697637      18.826527135628172      68.161359700844869
   184   1   -0.049636681896546547       17.39929914235972      70.216671979525671
   185   1      1.5688866160628514      18.893718632540345      72.130969450432147
   186   1    0.056172708254982953       17.42109481425841      74.159446836904436
   187   1      1.3897472369300603      18.801390065683648      76.264507209125966
   188   1   -0.030454617374885629       17.33883203678187      78.290854577516043
   189   1      1.4860423142397021      18.825641882631341       80.26040156959003
   190   1  -0.0049785856714249267      17.273966369423345      82.222482390752205
   191   1       1.422485338320036      18.766935026455233      84.363418332847814
   192   1   0.0015164325458398025      17.270991064413497      86.387302706665096
   193   1       1.501261405127309      18.768675055060722      88.414537475160174
   194   1     0.12192939370657825      17.315207696872207      90.408368484543644
   195   1      1.4935021705867677       18.87202659825207      92.427302874277402
   196   1     -0.1073539620350113      17.338541934846827      94.477843555040167
   197   1      1.5685687165236055      18.780994616872302      96.389518115693193
   198   1    -0.01663894776397817      17.358509880163318      98.525543336847065
   199   1      1.4862548266651292      18.901185782310268      100.58873316773816
   200   1   -0.028745034925809966      17.400166333223574      102.53239962086873
   201   1      1.4477115722622123      18.774995490839157       104.5322826028424
   202   1    -0.05863953517950813      17.298023871435724      106.59507071595021
   203   1       1.420489758332657      18.843703974292087        108.694061578364
   204   1    0.022178461280784476      17.420121444726412      110.70563031662509
   205   1      1.4706356313325342      18.837814234532107      112.66462491296075
   206   1   -0.011217450580037529       17.26380988038791       114.6339502784798
   207   1      1.3683038013610496      18.815390516535405      116.70096986449008
   208   1   -0.060479988240365594      17.371163651845102      118.79165271853105
   209   1      1.4393289159101754      18.831490738104819      120.82852785504841
   210   1    0.042843932547528926      17.273604202597134      122.84075848719098
   211   1      1.4530873450577912      21.614252854775096      64.118515497463022
   212   1  0.00056405201261577474       20.28864220513362      66.048950854198779
   213   1      1.2896339731175341      21.640443471149833      68.193577003114314
   214   1  -0.0015631055130744525      20.255319598761407      70.099941695501442
   215   1      1.4935697393920697      21.708910135537511      72.212341426078481
   216   1   -0.010467063466961416      20.194904138306452      74.180511355659348
   217   1      1.4709776361536748      21.617052703564013      76.280121041459779
   218   1    0.035393798582857267      20.156403531562123      78.298558867373117
   219   1      1.4671990585216508      21.739409335280431      80.209673278963805
   220   1    0.019865775224891843       20.27263677004531      82.268769115670111
   221   1      1.4098257114811528      21.688744529106724      84.270214046616459
   222   1     0.07656040095397737      20.258149236319625      86.333928588853453
   223   1      1.4797021079447246      21.736244218125556      88.334912961173302
   224   1    0.011535285324410186      20.233981594029029      90.350456362185653
   225   1      1.4577481456126624      21.584585518683337       92.43043121022481
   226   1    0.056980348495934488      20.267772810215632      94.441161470687717
   227   1       1.469316176753561      21.645114434050832      96.486037027503968
   228   1   -0.029375339308166167      20.264120257424686      98.556167430928312
   229   1      1.5383254228069623      21.695692333326214      100.44049933480467
   230   1    -0.07036475159578412      20.262324893074741      102.52543504463897
   231   1      1.4663264965902767      21.644440298798493       104.5948426607483
   232   1   -0.070335025321111355        20.1969557926103       106.6066407985824
   233   1      1.4208544840943778      21.703342820882892      108.56378314372857
   234   1    -0.02966521048954961      20.195346582575418      110.51088827043277
   235   1      1.4492375958998645      21.640827284789438      112.69749473178179
   236   1    0.049254596331973814      20.260945689727546      114.63253977748381
   237   1      1.4485404923810976      21.719181202189919      116.65622237298267
   238   1  -0.0064975906066268062      20.274295045049175      118.72243858668122
   239   1      1.4634565853054247        21.6457201750869      120.71674548955724
   240   1   -0.038035706533853922      20.184042491358465      122.73852306993743
   241   1       1.447719112906642       24.59684941678718      64.062365571609206
   242   1    0.079385725864509329      23.154938485552449      66.059310743934972
   243   1      1.4795534123277549      24.504577593856222      68.079496350598632
   244   1    0.068723085114043556      23.017740930918922      70.122089770316634
   245   1      1.4921984619766473      24.571778292672164      72.169132352334628
   246   1    0.065037238944029227      23.162366512356943      74.226964995907565
   247   1      1.3992312838994632      24.524947370067867      76.299772919718663
   248   1    0.074053700473211262      23.133724158875452       78.23949538359156
   249   1      1.5540330802770235      24.679257363622842      80.223527778005064
   250   1   -0.016492451714543412      23.237495578328048       82.33964663804565
   251   1      1.4079878020501995      24.435055206024238      84.287326305887191
   252   1   -0.037082320468892878      23.097046610343497      86.367373993605455
   253   1      1.4677226750705676      24.553619882148681      88.404551281490185
   254   1   0.0022460961258715141      23.136834411029604      90.437457583281031
   255   1      1.4451825733432861      24.589058562733392      92.361338555678799
   256   1    0.065693334430998965      23.128401206895283       94.48983447316121
   257   1      1.3653982538800089      24.537865510300154       96.42178186624497
   258   1    0.057702416884475555      23.179996439755797      98.469342320673633
   259   1      1.4170979628228713      24.589954359269999      100.48608531863384
   260   1    0.051524198239831599      23.169021573401487      102.47037498872608
   261   1      1.4621157525740527      24.506193965687334      104.56410860270054
   262   1  -0.0031024893944960681      23.216285742851387       106.5777261431685
   263   1      1.5387601373352615      24.450088723450854      108.62238214296167
   264   1    0.025827991805380996      23.076770819971628      110.74574662885308
   265   1      1.4289768950042638      24.534080652038178      112.59925922935301
   266   1    0.037152090010351524       23.04987487931351      114.68213117418777
   267   1      1.4306150109624907      24.621536260683133       116.6824382214257
   268   1    0.043079935026595642      23.144108880407757      118.82117850251009
   269   1      1.4547364021537188      24.532086581920055      120.70276118858915
   270   1    0.010710510835882326       23.21959465242108      122.69810275519286
   271   1       1.435450114528104      27.505088200548713      63.982385408628261
   272   1    0.049716608553314119      26.020375316432691      66.085399933013719
   273   1      1.4918719309969131      27.495643096515799       68.17920536063238
   274   1   -0.015784577479007522      25.984261441314246      70.275851020463548
   275   1      1.5501060917908887      27.503947683000014      72.127179485656569
   276   1   -0.022941213806638865      26.014296379996971      74.175303504944836
   277   1      1.4266663603615182      27.489757385607273      76.118836352862118
   278   1    0.059645938461081141      26.042446137651613      78.259305999274233
   279   1       1.467866755551291      27.433296798397549      80.249247593600629
   280   1    0.031046359594935648      25.966341470165439      82.283168808417471
   281   1      1.5410634075544933      27.531752938899221      84.369800841738396
   282   1     0.11405679014068358      26.012716785126287       86.33445640652576
   283   1      1.5078464630190294       27.47602260222018      88.356976569081795
   284   1    0.070244907905951878      26.026858121705164      90.440045854857345
   285   1      1.4831599861869111      27.495414324689765      92.474355875364765
   286   1     -0.1642965026410276      25.942261825193413      94.487870466983495
   287   1      1.4216885323265913      27.517508904407613      96.462995784685944
   288   1    0.035661939982630196      25.976122956993279      98.530233535217548
   289   1      1.4090527037551186       27.52004168039165      100.61421719724959
   290   1   -0.023580930045884779      25.938929887470806      102.47776940571366
   291   1      1.4857022039975372      27.458932963172845        104.519248466589
   292   1   -0.040531490476431196      26.052331619887912         106.62219091732
   293   1      1.3996292659984964      27.489358128751597       108.5865652830506
   294   1  -0.0073568031836650609      26.048154341494001      110.65526371074306
   295   1      1.3904077147629548      27.517769333119194      112.59743085474177
   296   1    -0.05294950723041203      26.016404681624994      114.74780432918907
   297   1      1.4674468746106464      27.502322183633282      116.69371492854019
   298   1    0.020070215839448912       25.95701127905172      118.72050703216317
   299   1      1.4427905758601198       27.44649325403806      120.76083791052335
   300   1   -0.017639076576674857      25.951299210451317      122.74190254408016
   301   1      1.4935771743385171      30.347622552660987      64.063470235844491
   302   1    0.034723807472643496      28.865155448005936      66.097526317818733
   303   1      1.3863723947551281      30.273746522036472      68.080510597378989
   304   1   -0.042484335851170743      28.830802693042518      70.086266906864466
   305   1      1.4685094433006496      30.338590334512133      72.139652679938706
   306   1    0.034059640990912403      28.904081097679871      74.216279256568797
   307   1      1.4003527363230088      30.369651132138618      76.253990952112389
   308   1     0.05641906512234366      28.842667256689555      78.215996367881402
   309   1      1.4198659656028618      30.426483979380876      80.280174811725743
   310   1     0.04689956567339635      28.985453774375014       82.32520845849497
   311   1      1.5118727017649227      30.414881474202595      84.277145384612012
   312   1    0.040790150477896234      28.813040734848727      86.284768176526185
   313   1      1.4004220844909629      30.365124801994334      88.336678755271862
   314   1    0.033382210104972221      28.894925641133586      90.384119348820832
   315   1      1.4091817004643321      30.389276456869215      92.418393438882546
   316   1    0.026515754835336698      28.796414846059481      94.410269523950916
   317   1      1.5196947267149026      30.304301706083606      96.522278758239878
   318   1    -0.02839322021233788      28.883909937499336      98.423291513475078
   319   1      1.4751053686485984      30.489395008194588      100.59735804786101
   320   1   -0.058251845975775818      29.011138666383346      102.54890745078697
   321   1        1.47490196517851      30.258409446293868      104.59197006892038
   322   1   -0.072183454977356787      28.883225470557225      106.67239706970835
   323   1      1.4147452237892686       30.33133944384835      108.63016918659081
   324   1    0.077715890999343742       28.90319404918132      110.60595102599612
   325   1      1.4317551334592449      30.244237092850618      112.62271801128065
   326   1    0.036846059468403573      28.941498600723346      114.68671504151423
   327   1      1.4469253552930599       30.42467118579281      116.72347434641748
   328   1   -0.045944676055529654      28.903352538446022      118.72939552373597
   329   1      1.4621754508997178      30.364185307212125        120.807573430977
   330   1   -0.019423737218495156      28.986441409486037      122.86738348467209
   331   1      1.4168865051638704      33.194947566895259      64.016709359673257
   332   1    0.017411396158221043      31.730900307036137      66.187468515288217
   333   1      1.4696228785668166       33.33731156797333       68.12189111747422
   334   1   -0.027455347111167212      31.727727385115454      70.196763279877317
   335   1      1.4161701553774402      33.300646099115859      72.184342983621349
   336   1   -0.046700844596456056      31.734678500902479      74.180265274512777
   337   1      1.3821383249032679      33.267596188616622      76.257047762217766
   338   1    0.029171468044113198      31.860652292711325       78.38629572294235
   339   1      1.3961610811567302      33.207031710876841      80.335256486216679
   340   1    0.019243088820868476      31.829626424655185      82.353984525278477
   341   1      1.4168754051330694        33.2637825491882      84.289256967168569
   342   1    0.027115153169497277      31.849341488860492      86.269349011281946
   343   1      1.5064584547606641      33.176467857504967      88.402209595507756
   344   1   -0.055000504696864849      31.804641729613152      90.372391589964295
   345   1      1.4826146219634784      33.228909905104956      92.401491465193246
   346   1   0.0035341698313376409      31.729034533483649      94.393502414636103
   347   1      1.5777629341210209      33.197602874719173      96.444436046762831
   348   1  -0.0057516953393727012      31.798963838209193      98.531706818438508
   349   1      1.4183981209229726      33.237355769847468      100.61868815548361
   350   1   -0.021080285392182097      31.776522259208775      102.52519278747143
   351   1      1.5163699046327026      33.228389946568022      104.62584927266761
   352   1   -0.053950146151519954      31.835792765433993      106.51097516777031
   353   1      1.4483537882151984      33.191549557591443      108.57711788454317
   354   1   0.0014091866659089679      31.836908123972101      110.64837112126001
   355   1      1.4810576345337323      33.303919473515741      112.69529351220882
   356   1    0.019165569056238202      31.823249536981951      114.67939435888397
   357   1      1.5044935965971189      33.208090611480756      116.71411540238479
   358   1    0.040655896951725765       31.69048818492946      118.80035850405041
   359   1      1.4976593074148674       33.15218331042071      120.75414616804272