(written by ASE)

7560 atoms
1 atom types

0.0       51.90446616621734  xlo xhi
0.0      49.945095855349003  ylo yhi
0.0      49.443122352861181  zlo zhi

Atoms # atomic

     1   1      2.8835814536787407   2.391178842835592e-17  2.9922336477829069e-17
     2   1      1.4417907268393704      2.4972547927674498  2.8631736132897086e-16
     3   1 -3.1798466322984666e-16      4.9945095855349004  5.0393388280572075e-16
     4   1                       0                       0                       0
     5   1 -3.1798466322984666e-16      1.6648365285116338       2.354434397755294
     6   1      4.3253721805181113      2.4972547927674498  2.8631736132897086e-16
     7   1      1.4417907268393702      7.4917643783023511  5.5416589507376721e-17
     8   1      4.3253721805181113      7.4917643783023511  5.5416589507376721e-17
     9   1      2.8835814536787407      4.9945095855349004  5.9844672955658137e-17
    10   1      1.4417907268393702      4.1620913212790835       2.354434397755294
    11   1      4.3253721805181113      4.1620913212790835       2.354434397755294
    12   1      2.8835814536787407      6.6593461140465342      2.3544343977552944
    13   1      2.8835814536787407      1.6648365285116336      2.3544343977552935
    14   1      1.4417907268393702     0.83241826425581755       4.708868795510587
    15   1      4.3253721805181113     0.83241826425581711       4.708868795510587
    16   1      2.8835814536787407      3.3296730570232671      4.7088687955105879
    17   1      1.4417907268393706      9.1566009068139849      2.3544343977552931
    18   1 -7.9323429861833427e-18      6.6593461140465342      2.3544343977552935
    19   1      1.4417907268393706      5.8269278497907164       4.708868795510587
    20   1  5.2416458218251128e-16      8.3241826425581671       4.708868795510587
    21   1 -7.9323429861833427e-18      3.3296730570232671       4.708868795510587
    22   1      4.3253721805181105      9.1566009068139849       2.354434397755294
    23   1      4.3253721805181105      5.8269278497907173      4.7088687955105879
    24   1      2.8835814536787407      8.3241826425581671       4.708868795510587
    25   1      2.8835814536787407  9.5647153713423681e-17      7.0633031932658801
    26   1      1.4417907268393706      2.4972547927674498       7.063303193265881
    27   1 -1.0387240129099869e-16      4.9945095855349004       7.063303193265881
    28   1 -7.9323429861833427e-18  9.5647153713423681e-17      7.0633031932658801
    29   1 -1.0387240129099869e-16      1.6648365285116333       9.417737591021174
    30   1      4.3253721805181113      2.4972547927674498       7.063303193265881
    31   1      1.4417907268393702      7.4917643783023511      7.0633031932658792
    32   1      4.3253721805181105      7.4917643783023511      7.0633031932658792
    33   1      2.8835814536787407      4.9945095855349004      7.0633031932658801
    34   1      1.4417907268393702      4.1620913212790835       9.417737591021174
    35   1      4.3253721805181105      4.1620913212790835       9.417737591021174
    36   1      2.8835814536787403      6.6593461140465342       9.417737591021174
    37   1      2.8835814536787407      1.6648365285116333       9.417737591021174
    38   1      1.4417907268393702     0.83241826425581722      11.772171988776467
    39   1      4.3253721805181105     0.83241826425581722      11.772171988776467
    40   1      2.8835814536787403      3.3296730570232671      11.772171988776467
    41   1      1.4417907268393702      9.1566009068139849      9.4177375910211722
    42   1 -1.5864685972366685e-17      6.6593461140465342       9.417737591021174
    43   1      1.4417907268393702      5.8269278497907164      11.772171988776467
    44   1  7.2143029346265319e-17      8.3241826425581671      11.772171988776467
    45   1 -1.5864685972366685e-17      3.3296730570232671      11.772171988776467
    46   1      4.3253721805181113      9.1566009068139849       9.417737591021174
    47   1      4.3253721805181113      5.8269278497907173      11.772171988776469
    48   1      2.8835814536787412      8.3241826425581671      11.772171988776467
    49   1      2.8835814536787403  1.9129430742684736e-16       14.12660638653176
    50   1      1.4417907268393702      2.4972547927674493       14.12660638653176
    51   1  7.2143029346265319e-17      4.9945095855349004       14.12660638653176
    52   1 -1.5864685972366685e-17  1.9129430742684736e-16       14.12660638653176
    53   1  7.2143029346265319e-17      1.6648365285116331      16.481040784287053
    54   1      4.3253721805181113      2.4972547927674502      14.126606386531762
    55   1       1.441790726839371       7.491764378302352       14.12660638653176
    56   1      4.3253721805181113       7.491764378302352      14.126606386531758
    57   1      2.8835814536787412      4.9945095855349004       14.12660638653176
    58   1       1.441790726839371      4.1620913212790844      16.481040784287053
    59   1      4.3253721805181113      4.1620913212790844      16.481040784287053
    60   1      2.8835814536787412      6.6593461140465342      16.481040784287053
    61   1      2.8835814536787412      1.6648365285116331      16.481040784287053
    62   1       1.441790726839371     0.83241826425581766      18.835475182042348
    63   1      4.3253721805181113     0.83241826425581766      18.835475182042344
    64   1      2.8835814536787412      3.3296730570232667      18.835475182042348
    65   1      1.4417907268393699      9.1566009068139849      16.481040784287053
    66   1 -2.0774480258199738e-16      6.6593461140465342      16.481040784287057
    67   1      1.4417907268393699      5.8269278497907182      18.835475182042348
    68   1  1.1363368796836546e-15      8.3241826425581671      18.835475182042348
    69   1 -2.0774480258199738e-16      3.3296730570232667      18.835475182042348
    70   1      4.3253721805181113      9.1566009068139849      16.481040784287053
    71   1      4.3253721805181113      5.8269278497907182      18.835475182042348
    72   1      2.8835814536787403      8.3241826425581671      18.835475182042348
    73   1      2.8835814536787399 -8.8234239164873469e-16      21.189909579797639
    74   1      1.4417907268393699      2.4972547927674502      21.189909579797643
    75   1 -1.3758110542103853e-15      4.9945095855348995      21.189909579797643
    76   1 -2.0774480258199738e-16 -8.8234239164873469e-16      21.189909579797643
    77   1 -1.3758110542103853e-15      1.6648365285116329      23.544343977552934
    78   1      4.3253721805181105      2.4972547927674502      21.189909579797643
    79   1      1.4417907268393688       7.491764378302352      21.189909579797643
    80   1      4.3253721805181122       7.491764378302352      21.189909579797643
    81   1      2.8835814536787403      4.9945095855348995      21.189909579797643
    82   1      1.4417907268393688      4.1620913212790835      23.544343977552938
    83   1      4.3253721805181122      4.1620913212790835      23.544343977552938
    84   1      2.8835814536787407      6.6593461140465333      23.544343977552938
    85   1      2.8835814536787403      1.6648365285116329      23.544343977552934
    86   1      1.4417907268393688     0.83241826425581755      25.898778375308229
    87   1      4.3253721805181122     0.83241826425581755      25.898778375308229
    88   1      2.8835814536787407      3.3296730570232667      25.898778375308229
    89   1      1.4417907268393719      9.1566009068139831      23.544343977552934
    90   1 -3.1729371944733371e-17      6.6593461140465333      23.544343977552938
    91   1      1.4417907268393719      5.8269278497907155      25.898778375308229
    92   1  5.7656121582712916e-16      8.3241826425581671      25.898778375308233
    93   1 -3.1729371944733371e-17      3.3296730570232667      25.898778375308229
    94   1      4.3253721805181087      9.1566009068139831      23.544343977552934
    95   1      4.3253721805181087      5.8269278497907155      25.898778375308229
    96   1      2.8835814536787403      8.3241826425581653      25.898778375308229
    97   1      2.8835814536787421  3.8258861485369472e-16       28.25321277306352
    98   1      1.4417907268393719      2.4972547927674493       28.25321277306352
    99   1  5.7656121582712916e-16      4.9945095855349004      28.253212773063524
   100   1 -3.1729371944733371e-17  3.8258861485369472e-16       28.25321277306352
   101   1  5.7656121582712916e-16      1.6648365285116342      30.607647170818815
   102   1      4.3253721805181105      2.4972547927674493       28.25321277306352
   103   1       1.441790726839369      7.4917643783023511       28.25321277306352
   104   1      4.3253721805181122      7.4917643783023511       28.25321277306352
   105   1      2.8835814536787403      4.9945095855348987       28.25321277306352
   106   1       1.441790726839369      4.1620913212790835      30.607647170818815
   107   1      4.3253721805181122      4.1620913212790835      30.607647170818815
   108   1      2.8835814536787407       6.659346114046536      30.607647170818815
   109   1      2.8835814536787403      1.6648365285116324      30.607647170818812
   110   1       1.441790726839369     0.83241826425581844      32.962081568574106
   111   1      4.3253721805181122     0.83241826425581844      32.962081568574106
   112   1      2.8835814536787407      3.3296730570232698      32.962081568574106
   113   1      1.4417907268393721      9.1566009068139849      30.607647170818812
   114   1  1.4428605869253064e-16      6.6593461140465324      30.607647170818815
   115   1      1.4417907268393721      5.8269278497907173      32.962081568574106
   116   1  7.5257664646439317e-16      8.3241826425581689      32.962081568574106
   117   1  1.4428605869253064e-16      3.3296730570232662      32.962081568574106
   118   1      4.3253721805181113      9.1566009068139849      30.607647170818815
   119   1      4.3253721805181113      5.8269278497907173      32.962081568574114
   120   1      2.8835814536787421      8.3241826425581689      32.962081568574106
   121   1      2.8835814536787434 -1.2883721804412632e-16      35.316515966329398
   122   1      1.4417907268393721      2.4972547927674524      35.316515966329398
   123   1  7.5257664646439317e-16      4.9945095855349013      35.316515966329405
   124   1  1.4428605869253064e-16 -1.2883721804412632e-16      35.316515966329398
   125   1  7.5257664646439317e-16      1.6648365285116353      37.670950364084696
   126   1      4.3253721805181096      2.4972547927674524      35.316515966329398
   127   1      1.4417907268393673      7.4917643783023502      35.316515966329398
   128   1      4.3253721805181105      7.4917643783023502      35.316515966329398
   129   1      2.8835814536787385      4.9945095855349013      35.316515966329398
   130   1      1.4417907268393673      4.1620913212790844      37.670950364084696
   131   1      4.3253721805181105      4.1620913212790844      37.670950364084696
   132   1      2.8835814536787394      6.6593461140465333      37.670950364084696
   133   1      2.8835814536787385      1.6648365285116353      37.670950364084689
   134   1      1.4417907268393673       0.832418264255815      40.025384761839987
   135   1      4.3253721805181105       0.832418264255815      40.025384761839987
   136   1      2.8835814536787394      3.3296730570232675      40.025384761839987
   137   1      1.4417907268393704      9.1566009068139831      37.670950364084689
   138   1 -1.4560553500704558e-15      6.6593461140465333      37.670950364084696
   139   1      1.4417907268393704      5.8269278497907164      40.025384761839987
   140   1 -8.4776476229859328e-16      8.3241826425581653      40.025384761839987
   141   1 -1.4560553500704558e-15      3.3296730570232675      40.025384761839987
   142   1      4.3253721805181078      9.1566009068139831      37.670950364084689
   143   1      4.3253721805181078      5.8269278497907164      40.025384761839987
   144   1       2.883581453678739      8.3241826425581653      40.025384761839987
   145   1       2.883581453678743 -1.7646847832974694e-15      42.379819159595286
   146   1      1.4417907268393715      2.4972547927674507      42.379819159595286
   147   1  1.9280098260786777e-16      4.9945095855349004      42.379819159595286
   148   1 -4.1548960516399476e-16 -1.7646847832974694e-15      42.379819159595286
   149   1  1.9280098260786777e-16      1.6648365285116338      44.734253557350577
   150   1      4.3253721805181113      2.4972547927674507      42.379819159595279
   151   1      1.4417907268393686      7.4917643783023529      42.379819159595279
   152   1      4.3253721805181122      7.4917643783023529      42.379819159595286
   153   1      2.8835814536787399      4.9945095855349004      42.379819159595286
   154   1      1.4417907268393686      4.1620913212790862      44.734253557350577
   155   1      4.3253721805181122      4.1620913212790862      44.734253557350577
   156   1      2.8835814536787403       6.659346114046536      44.734253557350584
   157   1      2.8835814536787399      1.6648365285116338      44.734253557350577
   158   1      1.4417907268393686       0.832418264255817      47.088687955105868
   159   1      4.3253721805181122       0.832418264255817      47.088687955105875
   160   1      2.8835814536787403      3.3296730570232693      47.088687955105875
   161   1      1.4417907268393717      9.1566009068139849      44.734253557350577
   162   1 -2.3947417452673075e-16      6.6593461140465324      44.734253557350577
   163   1      1.4417907268393717      5.8269278497907182      47.088687955105868
   164   1  3.6881641324513178e-16      8.3241826425581671      47.088687955105875
   165   1 -2.3947417452673075e-16      3.3296730570232658      47.088687955105868
   166   1      4.3253721805181087      9.1566009068139849      44.734253557350577
   167   1      4.3253721805181087      5.8269278497907182      47.088687955105868
   168   1      2.8835814536787399      8.3241826425581671      47.088687955105875
   169   1      2.8835814536787407      9.9890191710698009  1.1968934591131627e-16
   170   1      1.4417907268393706      12.486273963837251  1.8396210231525583e-16
   171   1 -1.0387240129099869e-16      14.983528756604702  1.1083317901475344e-16
   172   1 -7.9323429861833427e-18      9.9890191710698009  1.1968934591131627e-16
   173   1 -1.0387240129099869e-16      11.653855699581435       2.354434397755294
   174   1      4.3253721805181113      12.486273963837251  1.8396210231525583e-16
   175   1      1.4417907268393702      17.480783549372152 -7.1307248428143224e-16
   176   1      4.3253721805181105      17.480783549372152 -7.1307248428143224e-16
   177   1      2.8835814536787407      14.983528756604702 -7.7734524068537179e-16
   178   1      1.4417907268393702      14.151110492348884      2.3544343977552931
   179   1      4.3253721805181105      14.151110492348884      2.3544343977552931
   180   1      2.8835814536787403      16.648365285116334      2.3544343977552931
   181   1      2.8835814536787407      11.653855699581435      2.3544343977552931
   182   1      1.4417907268393702      10.821437435325619      4.7088687955105861
   183   1      4.3253721805181105      10.821437435325619      4.7088687955105861
   184   1      2.8835814536787403      13.318692228093068       4.708868795510587
   185   1      1.4417907268393702      19.145620077883784      2.3544343977552922
   186   1 -1.5864685972366685e-17      16.648365285116334      2.3544343977552931
   187   1      1.4417907268393702      15.815947020860518      4.7088687955105861
   188   1  7.2143029346265319e-17       18.31320181362797      4.7088687955105861
   189   1 -1.5864685972366685e-17      13.318692228093068       4.708868795510587
   190   1      4.3253721805181113      19.145620077883788       2.354434397755294
   191   1      4.3253721805181113      15.815947020860518      4.7088687955105879
   192   1      2.8835814536787412       18.31320181362797      4.7088687955105861
   193   1      2.8835814536787403      9.9890191710698009       7.063303193265881
   194   1      1.4417907268393702      12.486273963837251      7.0633031932658801
   195   1  7.2143029346265319e-17        14.9835287566047      7.0633031932658801
   196   1 -1.5864685972366685e-17      9.9890191710698009       7.063303193265881
   197   1  7.2143029346265319e-17      11.653855699581435       9.417737591021174
   198   1      4.3253721805181113      12.486273963837251      7.0633031932658819
   199   1       1.441790726839371      17.480783549372152       7.063303193265881
   200   1      4.3253721805181113      17.480783549372152      7.0633031932658792
   201   1      2.8835814536787412        14.9835287566047      7.0633031932658801
   202   1       1.441790726839371      14.151110492348884       9.417737591021174
   203   1      4.3253721805181113      14.151110492348884      9.4177375910211722
   204   1      2.8835814536787412      16.648365285116334       9.417737591021174
   205   1      2.8835814536787412      11.653855699581435       9.417737591021174
   206   1       1.441790726839371      10.821437435325619      11.772171988776467
   207   1      4.3253721805181113      10.821437435325619      11.772171988776465
   208   1      2.8835814536787412      13.318692228093068      11.772171988776467
   209   1      1.4417907268393699      19.145620077883788       9.417737591021174
   210   1 -2.0774480258199738e-16      16.648365285116334      9.4177375910211758
   211   1      1.4417907268393699      15.815947020860518      11.772171988776467
   212   1  1.1363368796836546e-15       18.31320181362797      11.772171988776467
   213   1 -2.0774480258199738e-16      13.318692228093068      11.772171988776469
   214   1      4.3253721805181113      19.145620077883788       9.417737591021174
   215   1      4.3253721805181113      15.815947020860518      11.772171988776467
   216   1      2.8835814536787403       18.31320181362797      11.772171988776467
   217   1      2.8835814536787399      9.9890191710698009       14.12660638653176
   218   1      1.4417907268393699      12.486273963837252      14.126606386531762
   219   1 -1.3758110542103853e-15      14.983528756604702       14.12660638653176
   220   1 -2.0774480258199738e-16      9.9890191710698009      14.126606386531762
   221   1 -1.3758110542103853e-15      11.653855699581435      16.481040784287053
   222   1      4.3253721805181105      12.486273963837252      14.126606386531762
   223   1      1.4417907268393688      17.480783549372152      14.126606386531762
   224   1      4.3253721805181122      17.480783549372152      14.126606386531762
   225   1      2.8835814536787403      14.983528756604702       14.12660638653176
   226   1      1.4417907268393688      14.151110492348886      16.481040784287057
   227   1      4.3253721805181122      14.151110492348886      16.481040784287057
   228   1      2.8835814536787407      16.648365285116334      16.481040784287053
   229   1      2.8835814536787403      11.653855699581435      16.481040784287053
   230   1      1.4417907268393688      10.821437435325619      18.835475182042348
   231   1      4.3253721805181122      10.821437435325619      18.835475182042348
   232   1      2.8835814536787407      13.318692228093068      18.835475182042348
   233   1      1.4417907268393719      19.145620077883784      16.481040784287053
   234   1 -3.1729371944733371e-17      16.648365285116334      16.481040784287053
   235   1      1.4417907268393719      15.815947020860518      18.835475182042348
   236   1  5.7656121582712916e-16       18.31320181362797      18.835475182042348
   237   1 -3.1729371944733371e-17      13.318692228093068      18.835475182042348
   238   1      4.3253721805181087      19.145620077883784      16.481040784287053
   239   1      4.3253721805181087      15.815947020860518      18.835475182042348
   240   1      2.8835814536787403      18.313201813627966      18.835475182042344
   241   1      2.8835814536787421      9.9890191710698009      21.189909579797643
   242   1      1.4417907268393719      12.486273963837251      21.189909579797643
   243   1  5.7656121582712916e-16      14.983528756604702      21.189909579797643
   244   1 -3.1729371944733371e-17      9.9890191710698009      21.189909579797643
   245   1  5.7656121582712916e-16      11.653855699581435      23.544343977552938
   246   1      4.3253721805181105      12.486273963837251      21.189909579797643
   247   1       1.441790726839369      17.480783549372152      21.189909579797643
   248   1      4.3253721805181122      17.480783549372152      21.189909579797643
   249   1      2.8835814536787403        14.9835287566047      21.189909579797639
   250   1       1.441790726839369      14.151110492348884      23.544343977552938
   251   1      4.3253721805181122      14.151110492348884      23.544343977552938
   252   1      2.8835814536787407      16.648365285116338      23.544343977552934
   253   1      2.8835814536787403      11.653855699581433      23.544343977552934
   254   1       1.441790726839369      10.821437435325617      25.898778375308229
   255   1      4.3253721805181122      10.821437435325617      25.898778375308229
   256   1      2.8835814536787407       13.31869222809307      25.898778375308229
   257   1      1.4417907268393721      19.145620077883784      23.544343977552934
   258   1  1.4428605869253064e-16      16.648365285116334      23.544343977552934
   259   1      1.4417907268393721      15.815947020860518      25.898778375308229
   260   1  7.5257664646439317e-16       18.31320181362797      25.898778375308229
   261   1  1.4428605869253064e-16      13.318692228093067      25.898778375308229
   262   1      4.3253721805181113      19.145620077883784      23.544343977552938
   263   1      4.3253721805181113      15.815947020860518      25.898778375308233
   264   1      2.8835814536787421       18.31320181362797      25.898778375308229
   265   1      2.8835814536787434      9.9890191710698009       28.25321277306352
   266   1      1.4417907268393721      12.486273963837251       28.25321277306352
   267   1  7.5257664646439317e-16      14.983528756604702      28.253212773063524
   268   1  1.4428605869253064e-16      9.9890191710698009       28.25321277306352
   269   1  7.5257664646439317e-16      11.653855699581436      30.607647170818815
   270   1      4.3253721805181096      12.486273963837251       28.25321277306352
   271   1      1.4417907268393673      17.480783549372152       28.25321277306352
   272   1      4.3253721805181105      17.480783549372152       28.25321277306352
   273   1      2.8835814536787385      14.983528756604702       28.25321277306352
   274   1      1.4417907268393673      14.151110492348883      30.607647170818815
   275   1      4.3253721805181105      14.151110492348883      30.607647170818815
   276   1      2.8835814536787394      16.648365285116334      30.607647170818815
   277   1      2.8835814536787385      11.653855699581436      30.607647170818812
   278   1      1.4417907268393673      10.821437435325617      32.962081568574106
   279   1      4.3253721805181105      10.821437435325617      32.962081568574106
   280   1      2.8835814536787394      13.318692228093068      32.962081568574106
   281   1      1.4417907268393704      19.145620077883784      30.607647170818812
   282   1 -1.4560553500704558e-15      16.648365285116334      30.607647170818815
   283   1      1.4417907268393704      15.815947020860515      32.962081568574106
   284   1 -8.4776476229859328e-16      18.313201813627966      32.962081568574106
   285   1 -1.4560553500704558e-15      13.318692228093068      32.962081568574106
   286   1      4.3253721805181078      19.145620077883784      30.607647170818812
   287   1      4.3253721805181078      15.815947020860515      32.962081568574106
   288   1       2.883581453678739      18.313201813627966      32.962081568574106
   289   1      2.8835814536787416      9.9890191710697973      35.316515966329398
   290   1      1.4417907268393704      12.486273963837249      35.316515966329398
   291   1 -8.4776476229859328e-16        14.9835287566047      35.316515966329398
   292   1 -1.4560553500704558e-15      9.9890191710698009      35.316515966329398
   293   1 -8.4776476229859328e-16      11.653855699581433      37.670950364084696
   294   1      4.3253721805181105      12.486273963837249      35.316515966329398
   295   1      1.4417907268393675      17.480783549372152      35.316515966329398
   296   1      4.3253721805181105      17.480783549372152      35.316515966329398
   297   1       2.883581453678739        14.9835287566047      35.316515966329398
   298   1      1.4417907268393675      14.151110492348884      37.670950364084696
   299   1      4.3253721805181105      14.151110492348884      37.670950364084689
   300   1      2.8835814536787394      16.648365285116338      37.670950364084689
   301   1       2.883581453678739      11.653855699581433      37.670950364084689
   302   1      1.4417907268393675      10.821437435325619      40.025384761839987
   303   1      4.3253721805181105      10.821437435325619       40.02538476183998
   304   1      2.8835814536787394      13.318692228093068      40.025384761839987
   305   1      1.4417907268393706      19.145620077883784      37.670950364084689
   306   1 -1.2800399194331918e-15      16.648365285116334      37.670950364084689
   307   1      1.4417907268393706      15.815947020860516       40.02538476183998
   308   1 -6.7174933166132927e-16       18.31320181362797       40.02538476183998
   309   1 -1.2800399194331918e-15      13.318692228093065      40.025384761839987
   310   1      4.3253721805181113      19.145620077883788      37.670950364084696
   311   1      4.3253721805181113       15.81594702086052      40.025384761839987
   312   1      2.8835814536787425       18.31320181362797       40.02538476183998
   313   1       2.883581453678743      9.9890191710697991      42.379819159595286
   314   1      1.4417907268393717      12.486273963837249      42.379819159595286
   315   1  3.6881641324513178e-16        14.9835287566047      42.379819159595286
   316   1 -2.3947417452673075e-16      9.9890191710697991      42.379819159595286
   317   1  3.6881641324513178e-16      11.653855699581435      44.734253557350584
   318   1      4.3253721805181113      12.486273963837249      42.379819159595286
   319   1      1.4417907268393688      17.480783549372148      42.379819159595286
   320   1      4.3253721805181122      17.480783549372152      42.379819159595286
   321   1      2.8835814536787399        14.9835287566047      42.379819159595286
   322   1      1.4417907268393688      14.151110492348881      44.734253557350577
   323   1      4.3253721805181122      14.151110492348884      44.734253557350577
   324   1      2.8835814536787407      16.648365285116331      44.734253557350577
   325   1      2.8835814536787399      11.653855699581435      44.734253557350584
   326   1      1.4417907268393688      10.821437435325613      47.088687955105868
   327   1      4.3253721805181122      10.821437435325617      47.088687955105868
   328   1      2.8835814536787407      13.318692228093067      47.088687955105875
   329   1      1.4417907268393719      19.145620077883784      44.734253557350577
   330   1 -6.3458743889466742e-17      16.648365285116331      44.734253557350577
   331   1      1.4417907268393719      15.815947020860516      47.088687955105868
   332   1  5.4483184388239579e-16      18.313201813627966      47.088687955105868
   333   1 -6.3458743889466742e-17      13.318692228093067      47.088687955105875
   334   1      4.3253721805181122      19.145620077883784      44.734253557350584
   335   1      4.3253721805181122      15.815947020860516      47.088687955105875
   336   1      2.8835814536787439      18.313201813627963      47.088687955105868
   337   1      2.8835814536787403      19.978038342139602  2.3937869182263255e-16
   338   1      1.4417907268393702      22.475293134907051  4.4105312793101404e-16
   339   1  7.2143029346265319e-17      24.972547927674501  3.6792420463051166e-16
   340   1 -1.5864685972366685e-17      19.978038342139602  2.3937869182263255e-16
   341   1  7.2143029346265319e-17      21.642874870651234      2.3544343977552935
   342   1      4.3253721805181113      22.475293134907051  2.2174099673312645e-15
   343   1       1.441790726839371      27.469802720441955  2.9479528133000927e-16
   344   1      4.3253721805181113      27.469802720441955 -1.4815615580702412e-15
   345   1      2.8835814536787412      24.972547927674501  3.6792420463051166e-16
   346   1       1.441790726839371      24.140129663418683      2.3544343977552953
   347   1      4.3253721805181113      24.140129663418683      2.3544343977552935
   348   1      2.8835814536787412      26.637384456186137      2.3544343977552935
   349   1      2.8835814536787412      21.642874870651234      2.3544343977552935
   350   1       1.441790726839371      20.810456606395419       4.708868795510587
   351   1      4.3253721805181113      20.810456606395419      4.7088687955105852
   352   1      2.8835814536787412      23.307711399162869      4.7088687955105861
   353   1      1.4417907268393699      29.134639248953587      2.3544343977552935
   354   1 -2.0774480258199738e-16      26.637384456186137      2.3544343977552953
   355   1      1.4417907268393699      25.804966191930319      4.7088687955105879
   356   1  1.1363368796836546e-15      28.302220984697769      4.7088687955105861
   357   1 -2.0774480258199738e-16      23.307711399162869      4.7088687955105879
   358   1      4.3253721805181113      29.134639248953587      2.3544343977552935
   359   1      4.3253721805181113      25.804966191930319      4.7088687955105879