LAMMPS (11 Feb 2026 - Development - b75dfcc)
OMP_NUM_THREADS environment is not set. Defaulting to 1 thread.
  using 1 OpenMP thread(s) per MPI task
package gpu 1
units metal
boundary p p p
atom_style atomic
timestep 0.002
read_data data.crystal
Reading data file ...
  orthogonal box = (0 0 0) to (98.16 98.16 98.16)
  1 by 1 by 1 MPI processor grid
  reading atoms ...
  55296 atoms
  read_data CPU = 0.113 seconds
change_box all triclinic
Changing box ...
  triclinic box = (0 0 0) to (98.16 98.16 98.16) with tilt (0 0 0)

pair_style eam
pair_coeff 1 1 Ag_u3.eam
Reading eam potential file Ag_u3.eam with DATE: 2007-06-11

neighbor 2.0 bin
neigh_modify delay 10 check yes

thermo 100
thermo_style custom step temp pe press pxx pyy pzz lx ly lz

print '=== Phase 1: 0K Relaxation ==='
=== Phase 1: 0K Relaxation ===
fix relax all box/relax aniso 0.0 vmax 0.001
minimize 1.0e-8 1.0e-10 10000 100000

CITE-CITE-CITE-CITE-CITE-CITE-CITE-CITE-CITE-CITE-CITE-CITE-CITE

Your simulation uses code contributions which should be cited:

- GPU package (short-range, long-range and three-body potentials): https://doi.org/10.1016/j.cpc.2010.12.021, https://doi.org/10.1016/j.cpc.2011.10.012, https://doi.org/10.1016/j.cpc.2013.08.002, https://doi.org/10.1016/j.commatsci.2014.10.068, https://doi.org/10.1016/j.cpc.2016.10.020, https://doi.org/10.3233/APC200086

@Article{Brown11,
 author = {W. M. Brown and P. Wang and S. J. Plimpton and A. N. Tharrington},
 title = {Implementing Molecular Dynamics on Hybrid High Performance Computers---Short Range Forces},
 journal = {Comput.\ Phys.\ Commun.},
 year =    2011,
 volume =  182,
 pages =   {898--911},
 doi =     {10.1016/j.cpc.2010.12.021}
}

@ArticDone.

Setting up cg style minimization ...
  Unit style    : metal
  Current step  : 0
WARNING: Energy due to 3 extra global DOFs will be included in minimizer energies
 (src/min.cpp:222)
Per MPI rank memory allocation (min/avg/max) = 23.04 | 23.04 | 23.04 Mbytes
   Step          Temp          PotEng         Press           Pxx            Pyy            Pzz             Lx             Ly             Lz      
         0   0             -157593.6      -0.12263306    -0.12286303    -0.12199961    -0.12303655     98.16          98.16          98.16        
         1   0             -157593.6       0.056759996    0.056447706    0.057330251    0.056502031    98.159996      98.159996      98.159996    
Loop time of 0.00986643 on 1 procs for 1 steps with 55296 atoms

100.0% CPU use with 1 MPI tasks x 1 OpenMP threads

Minimization stats:
  Stopping criterion = energy tolerance
  Energy initial, next-to-last, final = 
     -157593.602961423  -157593.602961423  -157593.603329806
  Force two-norm initial, final = 0.12547114 0.058189769
  Force max component initial, final = 0.072631907 0.033843643
  Final line search alpha, max atom move = 0.013768054 0.00046596109
  Iterations, force evaluations = 1 2

MPI task timing breakdown:
Section |  min time  |  avg time  |  max time  |%varavg| %total
---------------------------------------------------------------
Pair    | 0.005212   | 0.005212   | 0.005212   |   0.0 | 52.83
Neigh   | 0          | 0          | 0          |   0.0 |  0.00
Comm    | 0.00034404 | 0.00034404 | 0.00034404 |   0.0 |  3.49
Output  | 0          | 0          | 0          |   0.0 |  0.00
Modify  | 2.41e-07   | 2.41e-07   | 2.41e-07   |   0.0 |  0.00
Other   |            | 0.00431    |            |       | 43.69

Nlocal:          55296 ave       55296 max       55296 min
Histogram: 1 0 0 0 0 0 0 0 0 0
Nghost:          27891 ave       27891 max       27891 min
Histogram: 1 0 0 0 0 0 0 0 0 0
Neighs:              0 ave           0 max           0 min
Histogram: 1 0 0 0 0 0 0 0 0 0

Total # of neighbors = 0
Ave neighs/atom = 0
Neighbor list builds = 0
Dangerous builds = 0
=== Phase 2: Equilibration at 300.0K ===


---------------------------------------------------------------------
      Device Time Info (average): 
---------------------------------------------------------------------
Data Transfer:   0.0011 s.
Neighbor copy:   0.0000 s.
Neighbor build:  0.0003 s.
Force calc:      0.0029 s.
Device Overhead: 0.0001 s.
CPU Neighbor:    0.0011 s.
CPU Cast/Pack:   0.0022 s.
CPU Driver_Time: 0.0001 s.
CPU Idle_Time:   0.0036 s.
Average split:   1.0000.
Max Mem / Proc:  46.63 MB.
Prefetch mode:   None.
Vector width:    32.
Lanes / atom:    4.
Pair block:      256.
Neigh block:     128.
Neigh mode:      Hybrid (binning on host) with subgroup support.
Neigh sorting:   Unavailable or disabled.
---------------------------------------------------------------------


--------------------------------------------------------------------------
- Using acceleration for eam:
-  with 1 proc(s) per device.
-  with 1 thread(s) per proc.
-  Horizontal vector operations: ENABLED
-  Shared memory system: No
--------------------------------------------------------------------------
Device 0: NVIDIA RTX A4000, 48 CUs, 16/16 GB, 1.6 GHZ (Mixed Precision)
--------------------------------------------------------------------------

Initializing Device and compiling on process 0...Done.
Initializing Device 0 on core 0...Done.

Setting up Verlet run ...
  Unit style    : metal
  Current step  : 0
  Time step     : 0.002
Per MPI rank memory allocation (min/avg/max) = 17.85 | 17.85 | 17.85 Mbytes
   Step          Temp          PotEng         Press           Pxx            Pyy            Pzz             Lx             Ly             Lz      
         0   300           -157593.6       2421.6292      2427.2299      2419.1517      2418.5061      98.159996      98.159996      98.159996    
       100   189.19221     -156619.15      1376.4314      1381.3691      1361.7833      1386.1418      98.384974      98.378464      98.376694    
       200   190.05452     -156255.97      519.35361      506.11746      561.98179      489.96159      98.500811      98.487091      98.483816    
       300   215.47276     -155996.75      146.74473      202.57008      81.08161       156.58249      98.575855      98.56797       98.567798    
       400   240.06029     -155703.73      725.69949      729.21533      774.37534      673.50781      98.639718      98.617302      98.615987    
       500   276.51438     -155518.06      96.030063      71.8102        60.321661      155.95833      98.707361      98.701647      98.678634    
       600   302.21363     -155363.33     -221.46509     -234.9226      -161.01472     -268.45794      98.753315      98.734786      98.756021    
       700   303.62238     -155298.53      106.1294       105.43262      75.469021      137.48656      98.761494      98.763536      98.732089    
       800   295.68895     -155388.33      91.394531      84.515293      53.97994       135.68836      98.740073      98.734172      98.717795    
       900   299.95168     -155404.45     -219.69478     -238.29346     -267.6069      -153.18396      98.748379      98.730611      98.735096    
      1000   300.98926     -155318.98     -18.560363     -9.3505864     -83.749541      37.41904       98.763385      98.749278      98.743205    
      1100   300.84187     -155360.28     -204.70593     -216.02187     -160.06574     -238.03017      98.759342      98.736052      98.750139    
      1200   296.42795     -155389.23     -133.81016     -150.17873     -174.18775     -77.063986      98.750733      98.737854      98.727407    
      1300   299.82101     -155349.52     -56.649126     -96.457221      108.67589     -182.16605      98.764326      98.71296       98.761441    
      1400   302.654       -155356.45     -144.99621     -79.191403     -285.88832     -69.908917      98.738214      98.787284      98.720196    
      1500   296.15157     -155371.52      32.397443      38.857261      147.34771     -89.012643      98.750768      98.69009       98.76895     
      1600   300.76025     -155369.41      59.225403      50.320337      137.0206      -9.6647312      98.746946      98.71465       98.751774    
      1700   301.74945     -155354.97      337.01092      438.16176     -27.771969      600.64297      98.714896      98.832706      98.649686    
      1800   298.35266     -155368.38      455.39525      313.77332      905.2531       147.15933      98.780579      98.602754      98.789855    
      1900   298.6343      -155368.43      277.04652      402.71255      101.15097      327.27605      98.72186       98.780776      98.689101    
      2000   299.44138     -155345.01      41.614261      7.6549215      13.330762      103.8571       98.764093      98.750931      98.715951    
      2100   300.06321     -155356.39     -222.11669     -196.2209      -118.25751     -351.87165      98.760684      98.715959      98.774231    
      2200   299.43579     -155386.52     -386.89268     -339.39088     -501.85637     -319.43077      98.743248      98.775984      98.726504    
      2300   300.15787     -155365.16     -197.34342     -229.90558     -131.75846     -230.36622      98.760572      98.733315      98.748438    
      2400   300.86902     -155345.57      91.563205      181.0134       28.942192      64.734028      98.741286      98.747673      98.739313    
      2500   297.57099     -155359.73      246.44019      285.49548      224.28221      229.54287      98.745441      98.740305      98.713942    
Loop time of 8.33976 on 1 procs for 2500 steps with 55296 atoms

Performance: 51.800 ns/day, 0.463 hours/ns, 299.769 timesteps/s, 16.576 Matom-step/s
99.9% CPU use with 1 MPI tasks x 1 OpenMP threads

MPI task timing breakdown:
Section |  min time  |  avg time  |  max time  |%varavg| %total
---------------------------------------------------------------
Pair    | 4.3004     | 4.3004     | 4.3004     |   0.0 | 51.56
Neigh   | 7.3938e-05 | 7.3938e-05 | 7.3938e-05 |   0.0 |  0.00
Comm    | 0.27991    | 0.27991    | 0.27991    |   0.0 |  3.36
Output  | 0.010393   | 0.010393   | 0.010393   |   0.0 |  0.12
Modify  | 3.4559     | 3.4559     | 3.4559     |   0.0 | 41.44
Other   |            | 0.2931     |            |       |  3.51

Nlocal:          55296 ave       55296 max       55296 min
Histogram: 1 0 0 0 0 0 0 0 0 0
Nghost:          27891 ave       27891 max       27891 min
Histogram: 1 0 0 0 0 0 0 0 0 0
Neighs:              0 ave           0 max           0 min
Histogram: 1 0 0 0 0 0 0 0 0 0

Total # of neighbors = 0
Ave neighs/atom = 0
Neighbor list builds = 1
Dangerous builds = 0
=== Phase 3: Tension ===


---------------------------------------------------------------------
      Device Time Info (average): 
---------------------------------------------------------------------
Data Transfer:   0.6213 s.
Neighbor copy:   0.0001 s.
Neighbor build:  0.0007 s.
Force calc:      2.4175 s.
Device Overhead: 0.0469 s.
CPU Neighbor:    0.0013 s.
CPU Cast/Pack:   1.2unfix eq

print '=== Phase 3: Tension ==='
=== Phase 3: Tension ===
reset_timestep 0

# 初期z寸法の記録
variable tmp equal lz
variable lz0 equal ${tmp}
variable lz0 equal 98.7139418933226
variable tmp delete

# z軸変形 + x,yゼロ圧力（Poisson収縮を許容）
fix deform_fix all deform 1 z erate 0.0005 remap x
fix npt_fix all npt temp 300.0 300.0 0.1 x 0.0 0.0 1.0 y 0.0 0.0 1.0 xy 0.0 0.0 1.0 xz 0.0 0.0 1.0 yz 0.0 0.0 1.0

# ひずみ・応力（sigma = -P [GPa]）
variable strain equal (lz-v_lz0)/v_lz0
variable stress equal -pzz/10000

# 欠陥解析用compute
# stress/atom: 単位は bar*Å³（実応力はボロノイ体積で割る必要あり）
compute peratom all stress/atom NULL
compute cna all cna/atom 3.493
compute csym all centro/atom fcc

thermo 100
thermo_style custom step temp v_strain v_stress pxx pyy pzz lx ly lz

fix out1 all print 100 "${strain} ${stress}" file stress_strain.txt screen no
dump 1 all cDone.

Neighbor list info ...
  update: every = 1 steps, delay = 10 steps, check = yes
  max neighbors/atom: 2000, page size: 100000
  master list distance cutoff = 7.55
  ghost atom cutoff = 7.55
  binsize = 3.775, bins = 27 27 27
  2 neighbor lists, perpetual/occasional/extra = 0 2 0
  (1) compute cna/atom, occasional
      attributes: full, newton on
      pair build: full/bin/atomonly
      stencil: full/bin/3d
      bin: standard
  (2) compute centro/atom, occasional
      attributes: full, newton on
      pair build: full/bin/atomonly
      stencil: full/bin/3d
      bin: standard
Setting up Verlet run ...
  Unit style    : metal
  Current step  : 0
  Time step     : 0.002
Per MPI rank memory allocation (min/avg/max) = 26.87 | 26.87 | 26.87 Mbytes
   Step          Temp         v_strain       v_stress    v_stress_drop  v_drop_from_peak      Pxx            Pyy            Pzz             Lx             Ly             Lz      
         0   297.57099      1.4395996e-16 -0.02295424    -1.7347235e-17  0.02295424     285.49484      224.28167      229.5424       98.745441      98.740305      98.713942    
       100   299.48321      0.0001        -0.019662003   -0.0016461185   0.019662003    151.71369      147.1769       196.62003      98.743569      98.738984      98.723813    
       200   301.75389      0.0002        -0.0055506779  -0.010504962    0.0055506779   52.997326      64.122688      55.506779      98.748085      98.740467      98.733685    
       300   299.13465      0.0003         0.0015678019  -0.013217582    0              97.921392      73.525305     -15.678019      98.737379      98.737153      98.743556    
       400   297.66187      0.0004         0.012461627   -0.019289125    0             -72.690025      43.957526     -124.61627      98.755678      98.717188      98.753427    
       500   299.25962      0.0005         0.031109703   -0.031614335    0             -149.51294     -216.14168     -311.09703      98.73719       98.749342      98.763299    
       600   301.56813      0.0006         0.0459329     -0.039803599    0             -351.35918     -253.50523     -459.329        98.74753       98.737246      98.77317     
       700   300.43617      0.0007         0.063011295   -0.049771744    0             -347.55069     -387.45871     -630.11295      98.74186       98.739687      98.783042    
       800   302.00671      0.0008         0.062379786   -0.043680209    0.00063150842 -369.23668     -419.37476     -623.79786      98.729699      98.745788      98.792913    
       900   299.16623      0.0009         0.050507604   -0.028627224    0.012503691   -143.32316     -243.64699     -505.07604      98.724986      98.725258      98.802784    
      1000   298.96245      0.001          0.039525745   -0.011397367    0.023485549   -101.26907     -70.455676     -395.25745      98.723416      98.707371      98.812656    
      1100   300.61995      0.0011         0.038358642   -0.0044281989   0.024652653    26.712954     -63.166387     -383.58642      98.700194      98.720322      98.822527    
      1200   299.7844       0.0012         0.033941854    0.0039378418   0.02906944        0.031109703   -0.031614335    0             -149.51294     -216.14168     -311.09703      98.73719       98.749342      98.763299    
       600   301.56813      0.0006         0.0459329     -0.039803599    0             -351.35918     -253.50523     -459.329        98.74753       98.737246      98.77317     
       700   300.43617      0.0007         0.063011295   -0.049771744    0             -347.55069     -387.45871     -630.11295      98.74186       98.739687      98.783042    
       800   302.00671      0.0008         0.062379786   -0.043680209    0.00063150842 -369.23668     -419.37476     -623.79786      98.729699      98.745788      98.792913    
       900   299.16623      0.0009         0.050507604   -0.028627224    0.012503691   -143.32316     -243.64699     -505.07604      98.724986      98.725258      98.802784    
      1000   298.96245      0.001          0.039525745   -0.011397367    0.023485549   -101.2690    98.655803      98.881756    
      1800   298.80787      0.0018         0.07650077    -0.027229172    0              7.7463847     -83.610929     -765.0077       98.658505      98.689814      98.891627    
      1900   299.75532      0.0019         0.081845062   -0.029439718    0              106.42227     -48.742245     -818.45062      98.645374      98.696597      98.901498    
      2000   299.792        0.002          0.094762069   -0.036833093    0             -85.352203      39.797387     -947.62069      98.692879      98.659332      98.91137     
      2100   301.30695      0.0021         0.098303089   -0.034379668    0             -5.9591849     -178.0178      -983.03089      98.63585       98.706971      98.921241    
      2200   301.6637       0.0022         0.10061206    -0.030021616    0             -127.65848     -70.260218     -1006.1206      98.66202       98.662367      98.931113    
      2300   299.58176      0.0023         0.085915302   -0.01033909     0.014696756    24.979266      140.21752     -859.15302      98.664906      98.644132      98.940984    
      2400   299.19512      0.0024         0.082575127   -0.0022713391   0.01803693     305.47763      79.518217     -825.75127      98.609722      98.695942      98.950855    
      2500   299.01949      0.0025         0.085455307   -0.000611247    0.01515675     7.1630462      329.78025     -854.55307      98.684323      98.605648      98.960727    
      2600   299.14612      0.0026         0.10066681    -0.01244157     0              157.27967     -78.468506     -1006.6681      98.618047      98.666024      98.970598    
      2700   300.84164      0.0027         0.12556946    -0.032348955    0             -16.355518     -106.64409     -1255.6946      98.628425      98.663111      98.98047     
      2800   301.01842      0.0028         0.12420298    -0.026212257    0.0013664763  -147.90962      74.649836     -1242.0298      98.671537      98.613819      98.990341    
      2900   299.76039      0.0029         0.12473737    -0.022457417    0.00083208544  193.55275     -138.27741     -1247.3737      98.58798       98.675378      99.000212    
      3000   300.71607      0.003          0.13325116    -0.027122292    0             -191.05867      22.210235     -1332.5116      98.660354      98.602919      99.010084    
      3100   299.6933       0.0031         0.15916394    -0.046948985    0             -194.40248     -192.82505     -1591.6394      98.655984      98.630483      99.019955    
      3200   298.09922      0.0032         0.16755393    -0.048644787    0             -140.46447     -384.33929     -1675.5393      98.601322      98.672474      99.029827    
      3300   299.98269      0.0033         0.1742829     -0.046537001    0             -409.02832     -115.27694     -1742.829       98.675474      98.584071      99.039698    
      3400   302.11571      0.0034         0.16915447    -0.032750638    0.0051284291  -117.89547     -184.68209     -1691.5447      98.604404      98.636908      99.049569    
      3500   300.48622      0.0035         0.15677301    -0.013237411    0.017509886   -89.676447     -65.97026212257    0.0013664763  -147.90962      74.649836     -1242.0298      98.671537      98.613819      98.990341    
      2900   299.76039      0.0029         0.12473737    -0.022457417    0.00083208544  193.55275     -138.27741     -1247.3737      98.58798       98.675378      99.000212    
      3000   300.71607      0.003          0.13325116    -0.027122292    0             -191.05867      22.210235     -1332.5116      98.660354      98.602919      99.010084    
      3100   299.6933       0.0031         0.15916394    -0.046948985    0             -194.40248     -192.82505     -1591.6394      98.655984      98.630483      99.019955    
      3200   298.09922      0.0032         0.16755393    -0.048644787    0             -140.46447     -384.33929     -1675.5393      98.601322      98.672474      99.029827    
      3300   299.98269      0.0033         0.1742829     -0.046537001    0             -409.02832     -115.27694     -174798    
      4100   299.79521      0.0041         0.18013709    -0.0075894269   0.014491903   -80.766867      124.63121     -1801.3709      98.608055      98.566584      99.118669    
      4200   300.71494      0.0042         0.1814304     -0.0074950897   0.013198593    176.20489     -34.46523      -1814.304       98.545108      98.598375      99.12854     
      4300   300.14151      0.0043         0.17278163     0.0010035507   0.021847361    105.899        305.5907      -1727.8163      98.582335      98.551551      99.138412    
      4400   298.7428       0.0044         0.17888662    -0.0041282236   0.015742371    312.15778      191.29933     -1788.8662      98.542077      98.586767      99.148283    
      4500   299.35674      0.0045         0.19507178    -0.016483505    0              201.12215      84.48617      -1950.7178      98.548847      98.575911      99.158155    
      4600   299.02761      0.0046         0.20097408    -0.017787094    0              122.94599      320.35626     -2009.7408      98.584704      98.521943      99.168026    
      4700   300.84476      0.0047         0.20247931    -0.016160958    0              296.08204      144.54672     -2024.7931      98.526454      98.581854      99.177897    
      4800   300.80375      0.0048         0.21286058    -0.022150635    0              61.114491      226.55901     -2128.6058      98.565141      98.534029      99.187769    
      4900   299.45372      0.0049         0.20835998    -0.015598939    0.0045005982   166.83195      269.79263     -2083.5998      98.539788      98.53149       99.19764     
      5000   299.27476      0.005          0.21545327    -0.0206098      0              263.30302      119.82013     -2154.5327      98.516216      98.566987      99.207512    
      5100   299.61337      0.0051         0.22063637    -0.021742966    0              32.087476      213.89492     -2206.3637      98.561619      98.520036      99.217383    
      5200   299.21218      0.0052         0.23077076    -0.026943322    0              219.5091      -31.413943     -2307.7076      98.513118      98.55845       99.227254    
      5300   299.65083      0.0053         0.23016316    -0.020597566    0.00060760341  122.07154      48.355445     -2301.6316      98.529571      98.529971      99.237126    
      5400   301.04327      0.0054         0.24780421    -0.031346858    0             -64.31654       37.297487     -2478.0421      98.558153      98.515644      99.246997    
      5500   299.86823      0.0055         0.26823772    -0.044463771    0             -91.05953      -284.81169     -2682.3772      98.507923      98.566783      99.256869    
      5600   299.05304      0.0056         0.29699487    -0.063618852    0             -555.37018     -322.23571     -2969.9487      98.576272      98.515728      99.26674     
      5700   301.25771      0.0057         0.32255922    -0.077175207    0             -757.98983     -864.33519     -3225.5922      98.555733      98.572858      99.276611    
      5800   300.45446      0.0058         0.3233491     -0.066916232    0             -633.799       -799.31653     -3233.491          32.087476      213.89492     -2206.3637      98.561619      98.520036      99.217383    
      5200   299.21218      0.0052         0.23077076    -0.026943322    0              219.5091      -31.413943     -2307.7076      98.513118      98.55845       99.227254    
      5300   299.65083      0.0053         0.23016316    -0.020597566    0.00060760341  122.07154      48.355445     -2301.6316      98.529571      98.529971      99.237126    
      5400   301.04327      0.0054         0.24780421    -0.031346858    0             -64.31654       37.297487     -2478.0421      98.558153      98.515644      99.246997    
      5500   299.86823      0.0055         0.26823772    -0.044463771    0             -91.05953      -284.81169     -2682.3772      98.507923      98.566783      99.256869    
      5600   299.05304      0.0056         0.29699487    -0.063618852    0             -555.37018     -322.23571     -2969.9487      98.576272    60833      0.0064         0.29544948     0.0060226631   0.027899614   -150.29285      131.93927     -2954.4948      98.524165      98.472249      99.345711    
      6500   298.83059      0.0065         0.29983546     0.0047964637   0.023513641    195.6579      -19.799564     -2998.3546      98.447941      98.527584      99.355583    
      6600   300.25705      0.0066         0.298183       0.0065677381   0.025166103    65.013723      141.36882     -2981.83        98.474641      98.486049      99.365454    
      6700   300.72747      0.0067         0.29550923     0.0065365079   0.027839872    108.5923       299.28958     -2955.0923      98.49513       98.453293      99.375325    
      6800   299.4964       0.0068         0.30223326    -0.0022991113   0.021115837    137.35567      132.11745     -3022.3326      98.447246      98.500464      99.385197    
      6900   298.1906       0.0069         0.31340485    -0.013566852    0.0099442532   121.45844      147.15265     -3134.0485      98.44865       98.483492      99.395068    
      7000   299.45237      0.007          0.31827562    -0.01618597     0.0050734791  -30.711375      187.0088      -3182.7562      98.484108      98.448812      99.404939    
      7100   301.56791      0.0071         0.34183498    -0.0351264      0              18.159154     -81.511595     -3418.3498      98.448175      98.48483       99.414811    
      7200   300.31782      0.0072         0.32684658    -0.017659851    0.014988396   -10.840277      40.621575     -3268.4658      98.461295      98.455289      99.424682    
      7300   299.44779      0.0073         0.34472275    -0.031093234    0             -10.054225      9.8634961     -3447.2275      98.464177      98.454331      99.434554    
      7400   299.78249      0.0074         0.34815041    -0.029250799    0              16.490561     -34.500949     -3481.5041      98.459577      98.459171      99.444425    
      7500   299.55127      0.0075         0.35829494    -0.033549379    0             -109.468       -82.198518     -3582.9494      98.465818      98.441123      99.454296    
      7600   300.15898      0.0076         0.37504265    -0.042611127    0             -55.370956     -223.43631     -3750.4265      98.425389      98.476036      99.464168    
      7700   301.51381      0.0077         0.37925681    -0.038450524    0             -351.092       -240.08423     -3792.5681      98.463713      98.453025      99.474039    
      7800   299.8677       0.0078         0.39317742    -0.043276719    0             -362.68902     -197.64261     -3931.7742      98.461539      98.439859      99.483911    
      7900   301.4689       0.0079         0.39582013    -0.037677896    0             -123.19411     -342.11658     -3958.2013      98.401117      98.483021      99.493782    
      8000   301.63282      0.008          0.38174007    -0.017251397    0.014080054   -219.93004      2.2237404     -3817.4007      98.467797      98.405925      99.503653    
      8100   300.77023      0.0081         0.38331225    -0.014675847    0.012507877   -66.555065     -2.5423604     -3833.1225      98.43534       98.428317 49     -3481.5041      98.459577      98.459171      99.444425    
      7500   299.55127      0.0075         0.35829494    -0.033549379    0             -109.468       -82.198518     -3582.9494      98.465818      98.441123      99.454296    
      7600   300.15898      0.0076         0.37504265    -0.042611127    0             -55.370956     -223.43631     -3750.4265      98.425389      98.476036      99.464168    
      7700   301.51381      0.0077         0.37925681    -0.038450524    0             -351.092       -240.08423     -3792.5681      98.463713      98.453025      99.474039    
      7800   299.8677       0.0078         0.39317742    -0.043276719    0             -362.68902     -197.64261     -3931.7742      98.461539      98.439859      99.483911    
      7900   301.4689       0.0079         0.39582013    -0.037677896    0             -123.19411     -342.11658     -3958.2013      98.401117      98.483021      99.49378 0.39949075    -0.0074752026   0.0056374563   89.869317      150.84931     -3994.9075      98.415694      98.384042      99.572753    
      8800   300.04702      0.0088         0.40681496    -0.013435651    0             -12.308638      67.948333     -4068.1496      98.398384      98.394715      99.582625    
      8900   299.27273      0.0089         0.42424369    -0.028022027    0              37.217204     -150.93165     -4242.4369      98.370435      98.421817      99.592496    
      9000   301.34097      0.009          0.44883454    -0.045903433    0             -337.49539     -98.589753     -4488.3454      98.454192      98.344225      99.602367    
      9100   298.9506       0.0091         0.43619376    -0.027974501    0.012640782    31.351543     -191.97993     -4361.9376      98.35945       98.423085      99.612239    
      9200   299.85271      0.0092         0.44894139    -0.034085645    0             -102.233       -338.36976     -4489.4139      98.363548      98.419524      99.62211     
      9300   300.65447      0.0093         0.45173941    -0.030316213    0             -408.63125      14.585932     -4517.3941      98.464463      98.315572      99.631982    
      9400   298.81112      0.0094         0.44780672    -0.020395813    0.0039326885  -10.445801     -205.29529     -4478.0672      98.344735      98.408713      99.641853    
      9500   299.90095      0.0095         0.45286762    -0.020661514    0             -97.298241     -110.0399      -4528.6762      98.374739      98.372844      99.651724    
      9600   300.47931      0.0096         0.45123064    -0.014414295    0.0016369764  -126.52718      0.89386535    -4512.3064      98.391638      98.345795      99.661596    
      9700   299.64936      0.0097         0.45310971    -0.010931466    0              174.99099     -33.942406     -4531.0971      98.334697      98.388045      99.671467    
      9800   298.24403      0.0098         0.45955041    -0.012098625    0              36.389165      155.41213     -4595.5041      98.369782      98.330833      99.681339    
      9900   300.00497      0.0099         0.47036041    -0.018296945    0             -23.362724      44.840077     -4703.6041      98.357167      98.354846      99.69121     
     10000   301.67554      0.01           0.48237774    -0.026959957    0             -60.18009      -250.41991     -4823.7774      98.318743      98.392989      99.701081    
     10100   299.05555      0.0101         0.4962734     -0.034847654    0             -224.05575     -114.90023     -4962.734       98.390322      98.319135      99.710953    
     10200   300.21228      0.0102         0.5221016     -0.053359833    0             -407.00881     -411.43293     -5221.016       98.373926      98.340498      99.720824    
     10300   300.4402       0.0103         0.53711187    -0.059832861    0             -447.53728     -716.64585     -5371.1187      98.328048      98.411423      99.730695    
     10400   298.75343      0.0104         0.54587269    -0.058787084    0             -634.77524     -538.37201     -5458.7269      98.39925       98.331609      99.740567    
     1.334697      98.388045      99.671467    
      9800   298.24403      0.0098         0.45955041    -0.012098625    0              36.389165      155.41213     -4595.5041      98.369782      98.330833      99.681339    
      9900   300.00497      0.0099         0.47036041    -0.018296945    0             -23.362724      44.840077     -4703.6041      98.357167      98.354846      99.69121     
     10000   301.67554      0.01           0.48237774    -0.026959957    0             -60.18009      -250.41991     -4823.7774      98.318743      98.392989      99.701081    
     10100   299.05555      0.0101         0.4962734     -0.034847654    0             -224.05575     -114.90023     -4962.734       98.390322      98.319135      99.710953    
     10200   300.21228      0.0102         0.5221016     -0.053359833    0             -407.00881     -411.43293     -5221.016       98.373926      98.340498      99.720824    
     10300   300.4482    0.056608521    483.37047      531.52128     -4892.6417      98.298301      98.271899      99.799795    
     11100   298.90883      0.0111         0.50315156     0.011623011    0.042721135    356.18738      360.33465     -5031.5156      98.279814      98.301855      99.809667    
     11200   299.78339      0.0112         0.50816279     0.0052178951   0.037709898    303.32779      312.79419     -5081.6279      98.289747      98.296011      99.819538    
     11300   301.54605      0.0113         0.53717908    -0.023791671    0.0086936116   22.738772      68.945234     -5371.7908      98.304933      98.288871      99.829409    
     11400   298.56947      0.0114         0.54344668    -0.030301869    0.0024260145   177.43414      50.406295     -5434.4668      98.279097      98.295244      99.839281    
     11500   300.03317      0.0115         0.55107135    -0.036391499    0              11.811348     -15.205237     -5510.7135      98.305114      98.278328      99.849152    
     11600   301.13105      0.0116         0.56854926    -0.048202563    0             -148.02646     -189.83156     -5685.4926      98.307103      98.28886       99.859024    
     11700   299.87455      0.0117         0.59800566    -0.068765535    0             -395.45815     -517.37664     -5980.0566      98.287123      98.317795      99.868895    
     11800   299.1086       0.0118         0.61528985    -0.074397008    0             -649.40837     -410.80611     -6152.8985      98.33229       98.273235      99.878766    
     11900   300.65352      0.0119         0.61064118    -0.058165025    0.0046486636  -483.23162     -472.94676     -6106.4118      98.294241      98.30325       99.888638    
     12000   301.48992      0.012          0.60100311    -0.037353054    0.014286741   -258.59122     -374.98999     -6010.0311      98.26863       98.312509      99.898509    
     12100   298.2851       0.0121         0.59072664    -0.018319077    0.02456321    -87.080489     -52.710304     -5907.2664      98.277756      98.268059      99.908381    
     12200   299.79241      0.0122         0.58507388    -0.0049752069   0.030215972    24.658171      24.708125     -5850.7388      98.263561      98.266604      99.918252    
     12300   300.65437      0.0123         0.57568255     0.0082664666   0.039607299    150.65951      158.38875     -5756.8255      98.25378       98.261091      99.928123    
     12400   299.16294      0.0124         0.583199       0.0047252514   0.032090852    196.27167      174.35178     -5831.99        98.240794      98.250594      99.937995    
     12500   299.60732      0.0125         0.58158094     0.0093942687   0.03370891     267.68377      270.77295     -5815.8094      98.241012      98.246146      99.947866    
     12600   301.34952      0.0126         0.58918578     0.0038530733   0.026104063    171.60109      238.31281     -5891.8578      98.245554      98.240285      99.957738    
     12700   298.60655      0.0127         0.580353       0.010920592    0.034936847    432.64926      351.58001     -5803.53        98.20555       98.246927      99.967609    
     12800   299.55349      0.0   99.898509    
     12100   298.2851       0.0121         0.59072664    -0.018319077    0.02456321    -87.080489     -52.710304     -5907.2664      98.277756      98.268059      99.908381    
     12200   299.79241      0.0122         0.58507388    -0.0049752069   0.030215972    24.658171      24.708125     -5850.7388      98.263561      98.266604      99.918252    
     12300   300.65437      0.0123         0.57568255     0.0082664666   0.039607299    150.65951      158.38875     -5756.8255      98.25378       98.261091      99.928123    
     12400   299.16294      0.0124         0.583199       0.0047252514   0.032090852    196.27167      174.35178     -5831.99        98.240794      98.250594      99.937995    
     12500   299.60732      0.0125         0.58158094     0.0093942687   0.03370891     267.68377      270.77295     -5815.8094      98.241012      98.246146      99.947866    
     12600   301.34952      0.0126         09984      -346.56606     -6683.5467      98.238395      98.246369      100.02684    
     13400   297.50461      0.0134         0.68558336    -0.067175185    0             -470.67372     -474.38888     -6855.8336      98.252582      98.224568      100.03671    
     13500   299.66544      0.0135         0.68802061    -0.058968467    0             -344.40361     -424.81535     -6880.2061      98.229063      98.237415      100.04658    
     13600   300.02536      0.0136         0.67817676    -0.040225528    0.0098438411  -303.13141     -255.17054     -6781.7676      98.218812      98.232776      100.05645    
     13700   298.48399      0.0137         0.67707173    -0.029448621    0.010948875   -226.21596     -161.56033     -6770.7173      98.213551      98.214858      100.06632    
     13800   300.278        0.0138         0.67276004    -0.016520341    0.015260569   -189.01666     -34.141938     -6727.6004      98.218462      98.196127      100.07619    
     13900   300.99144      0.0139         0.67386274    -0.0098865669   0.014157868   -93.722211     -53.91808      -6738.6274      98.206288      98.201042      100.08607    
     14000   298.93837      0.014          0.67406392    -0.0031206064   0.013956681    19.697516      67.498506     -6740.6392      98.202072      98.186937      100.09594    
     14100   297.16027      0.0141         0.68433062    -0.008223089    0.0036899812   47.015393      35.838897     -6843.3062      98.199599      98.174725      100.10581    
     14200   298.99551      0.0142         0.69572231    -0.01592763     0             -93.940515     -67.879088     -6957.2231      98.203941      98.185106      100.11568    
     14300   300.83795      0.0143         0.70215593    -0.018981126    0             -26.76216      -214.83091     -7021.5593      98.172924      98.211736      100.12555    
     14400   299.1262       0.0144         0.70463274    -0.019552998    0             -123.70543     -44.065742     -7046.3274      98.192088      98.169733      100.13542    
     14500   298.97406      0.0145         0.7026235     -0.016083473    0.0020092362   30.559969      8.3377561     -7026.235       98.179251      98.167689      100.14529    
     14600   300.62883      0.0146         0.69251446    -0.0045406616   0.012118278    313.31413      115.19511     -6925.1446      98.137546      98.189702      100.15517    
     14700   299.64222      0.0147         0.68268526     0.0058498954   0.021947482    345.95567      459.38829     -6826.8526      98.176945      98.133151      100.16504    
     14800   298.36199      0.0148         0.67722389     0.011757645    0.027408846    585.48746      454.86051     -6772.2389      98.132352      98.157406      100.17491    
     14900   298.44748      0.0149         0.68686303     0.0034185402   0.017769713    493.90338      466.22531     -6868.6303      98.12693       98.150234      100.18478    
     15000   301.638        0.015          0.71690193    -0.022336567    0              97.722304      178.1931      -7169.0193      98.173832      98.133317      100.19465    
     15100   299.85384      0.0151         0.73382813   00   299.1262       0.0144         0.70463274    -0.019552998    0             -123.70543     -44.065742     -7046.3274      98.192088      98.169733      100.13542    
     14500   298.97406      0.0145         0.7026235     -0.016083473    0.0020092362   30.559969      8.3377561     -7026.235       98.179251      98.167689      100.14529    
     14600   300.62883      0.0146         0.69251446    -0.0045406616   0.012118278    313.31413      115.19511     -6925.1446      98.137546      98.189702      100.15517    
     14700   299.64222      0.0147         0.68268526     0.0058498954   0.021947482    345.95567      459.38829     -6826.8526      98.176945      98.133151      100.16504    
     14800   298.36199      0.0148         0.67722389     0.011757645    0.027408846    585.48746      454.86051     -6772.2389      98.132352      98.157406      100.17491    
     14900   298.44748      0.0149         0.68686303     0.003418540-7632.8601      98.145737      98.134857      100.25388    
     15700   301.57451      0.0157         0.77147713    -0.038306775    0             -45.205265     -132.13673     -7714.7713      98.132313      98.1479        100.26375    
     15800   299.30647      0.0158         0.76986221    -0.027428027    0.0016149155  -122.15072      185.38785     -7698.6221      98.147017      98.104234      100.27362    
     15900   300.64047      0.0159         0.77646265    -0.025068499    0              176.14782     -59.752119     -7764.6265      98.092359      98.154386      100.28349    
     16000   299.48774      0.016          0.75494204     0.00025611638  0.021520604    245.04575      224.70564     -7549.4204      98.119696      98.112405      100.29336    
     16100   299.33447      0.0161         0.77210955    -0.013083248    0.004353097    199.65702      441.9677      -7721.0955      98.144656      98.056723      100.30324    
     16200   301.14429      0.0162         0.75826281     0.0037899601   0.018199841    507.83709      274.90925     -7582.6281      98.050944      98.137279      100.31311    
     16300   301.80155      0.0163         0.76628612    -0.0024903053   0.010176522    401.93974      426.01338     -7662.8612      98.097612      98.085898      100.32298    
     16400   299.20776      0.0164         0.77697999    -0.010413324    0              376.01869      430.13411     -7769.7999      98.113051      98.060568      100.33285    
     16500   300.68929      0.0165         0.79261782    -0.022389183    0              340.90031      107.15136     -7926.1782      98.061127      98.12195       100.34272    
     16600   299.10341      0.0166         0.79632592    -0.022793293    0              212.90145      234.30311     -7963.2592      98.104648      98.080425      100.35259    
     16700   300.06833      0.0167         0.81422357    -0.036416299    0             -27.563883      149.1109      -8142.2357      98.110793      98.069856      100.36246    
     16800   296.40175      0.0168         0.81701951    -0.034496517    0              294.36713      76.655759     -8170.1951      98.041666      98.114745      100.37234    
     16900   299.91393      0.0169         0.83593862    -0.047468023    0             -148.87716      23.987804     -8359.3862      98.117094      98.058246      100.38221    
     17000   300.9564       0.017          0.85710349    -0.058416751    0             -210.2174      -120.50518     -8571.0349      98.109721      98.07906       100.39208    
     17100   300.76006      0.0171         0.86769832    -0.059452705    0             -187.83675     -450.02898     -8676.9832      98.050846      98.133537      100.40195    
     17200   299.14753      0.0172         0.87555508    -0.055580237    0             -400.01991     -169.70207     -8755.5508      98.130403      98.045484      100.41182    
     17300   300.51169      0.0173         0.88492539    -0.053086615    0             -351.09891     -338.24186     -8849.2539      98.093684      98.087698      100.42169    
     17400   300.71773      0.0174         0.88701609    -0.044173714    0       7         0.81422357    -0.036416299    0             -27.563883      149.1109      -8142.2357      98.110793      98.069856      100.36246    
     16800   296.40175      0.0168         0.81701951    -0.034496517    0              294.36713      76.655759     -8170.1951      98.041666      98.114745      100.37234    
     16900   299.91393      0.0169         0.83593862    -0.047468023    0             -148.87716      23.987804     -8359.3862      98.117094      98.058246      100.38221    
     17000   300.9564       0.017          0.85710349    -0.058416751    0             -210.2174      -120.50518     -8571.0349      98.109721      98.07906       100.39208    
     17100   300.76006      0.0171         0.86769832    -0.059452705    0             -187.83675     -450.02898     -8676.9832      98.050846      98.133537      100.40195    
     17200   299.14753      0.0172         0.87555508    -0.055580237    0             -400.01      98.041196      100.48092    
     18000   300.3665       0.018          0.86660708     0.010288263    0.020409011    286.62448      88.377867     -8666.0708      98.014708      98.054038      100.49079    
     18100   300.96582      0.0181         0.87061809     0.006569237    0.016398008    168.02632      310.62487     -8706.1809      98.067795      97.995523      100.50066    
     18200   299.69283      0.0182         0.89100221    -0.012270172    0              187.14609      207.62411     -8910.0221      98.028777      98.021798      100.51054    
     18300   298.70647      0.0183         0.87922962    -0.0010671654   0.011772583    330.55287      169.17537     -8792.2962      98.000327      98.042899      100.52041    
     18400   300.43237      0.0184         0.90351359    -0.023701383    0             -53.488357      113.13424     -9035.1359      98.05723       98.003395      100.53028    
     18500   299.74982      0.0185         0.91338407    -0.030707226    0              36.28489      -0.87230096    -9133.8407      98.023412      98.034857      100.54015    
     18600   300.3333       0.0186         0.93053941    -0.042929233    0             -87.340821     -153.80273     -9305.3941      98.025627      98.029464      100.55002    
     18700   302.14919      0.0187         0.94242556    -0.047198743    0             -236.63888     -45.203481     -9424.2556      98.067222      97.982233      100.55989    
     18800   301.77834      0.0188         0.92545822    -0.025432798    0.016967346   -6.8794269     -92.818038     -9254.5822      97.994639      98.04274       100.56976    
     18900   300.51865      0.0189         0.94508344    -0.038297313    0             -34.81959      -235.4399      -9450.8344      97.977832      98.050124      100.57964    
     19000   298.93728      0.019          0.95110551    -0.035869534    0             -400.49474      76.368617     -9511.0551      98.096421      97.937627      100.58951    
     19100   300.27709      0.0191         0.96557659    -0.04084477     0             -71.187887     -363.27722     -9655.7659      97.96834       98.065149      100.59938    
     19200   300.9359       0.0192         0.98544226    -0.051266436    0             -306.23115     -408.89385     -9854.4226      97.980591      98.050328      100.60925    
     19300   297.84883      0.0193         0.98816791    -0.043098254    0             -450.90903     -172.59135     -9881.6791      98.061472      97.957266      100.61912    
     19400   298.518        0.0194         0.97508451    -0.022857765    0.013083396   -52.567267     -333.74932     -9750.8451      97.9699        98.04049       100.62899    
     19500   301.47365      0.0195         0.9880423     -0.028349727    0.00012561129 -85.67018      -241.253       -9880.423       97.97416       98.020647      100.63886    
     19600   298.58435      0.0196         0.98647361    -0.021187618    0.0016943004  -132.80895      79.658653     -9864.7361      98.033087      97.937923      100.64874    
     19700   298.96403      0.0197         0.97462913    -0.0061227829   0.013538779    109.52576     -29.0.035869534    0             -400.49474      76.368617     -9511.0551      98.096421      97.937627      100.58951    
     19100   300.27709      0.0191         0.96557659    -0.04084477     0             -71.187887     -363.27722     -9655.7659      97.96834       98.065149      100.59938    
     19200   300.9359       0.0192         0.98544226    -0.051266436    0             -306.23115     -408.89385     -9854.4226      97.980591      98.050328      100.60925    
     19300   297.84883      0.0193         0.98816791    -0.043098254    0             -450.90903     -172.59135     -9881.6791      98.061472      97.957266      100.61912    
     19400   298.518        0.0194         0.97508451    -0.022857765    0.013083396   -52.567267     -333.74932     -9750.8451      97.9699        98.04049       100.62899    
     19500   301.47365      0.0195         0.9880423     -0.028349727    0.00012561129 -85.67018      -241.253       -970796    
     20300   299.55781      0.0203         0.99611551    -0.0063852602   0.0055784331   227.69294      53.570169     -9961.1551      97.916959      97.986867      100.71783    
     20400   298.1229       0.0204         0.99803322    -0.0060081002   0.0036607222   192.68857      368.26546     -9980.3322      97.954304      97.931095      100.72771    
     20500   299.6431       0.0205         1.0069297     -0.013015852    0              125.64735      258.33691     -10069.297      97.977492      97.912748      100.73758    
     20600   299.12793      0.0206         1.0089141     -0.012756147    0              302.38189      182.74192     -10089.141      97.905497      97.982116      100.74745    
     20700   298.47486      0.0207         1.0219238     -0.021036458    0              223.23689      92.456121     -10219.238      97.92315       97.949357      100.75732    
     20800   299.65653      0.0208         1.0244579     -0.019972794    0             -6.9708635      408.43689     -10244.579      98.014806      97.852411      100.76719    
     20900   299.21384      0.0209         1.0374102     -0.028137277    0              224.09227     -71.837595     -10374.102      97.889477      97.988749      100.77706    
     21000   302.92628      0.021          1.0610461     -0.045838021    0             -187.15615     -243.41381     -10610.461      97.927059      97.970173      100.78693    
     21100   299.60325      0.0211         1.0618343     -0.040047148    0             -199.60306      0.39108055    -10618.343      97.983388      97.890645      100.79681    
     21200   298.40342      0.0212         1.0616472     -0.033815995    0.00018708035  34.27645      -143.91115     -10616.472      97.900668      97.959175      100.80668    
     21300   299.89663      0.0213         1.074038      -0.038414579    0             -113.39457     -177.33219     -10740.38       97.904459      97.954087      100.81655    
     21400   300.10608      0.0214         1.0723438     -0.029289301    0.0016942184  -167.34787      23.706135     -10723.438      97.961054      97.893515      100.82642    
     21500   300.85743      0.0215         1.0868407     -0.035795097    0             -101.45322     -137.79648     -10868.407      97.918262      97.918151      100.83629    
     21600   299.89944      0.0216         1.0814846     -0.02318193     0.0053561116   142.28417      22.770309     -10814.846      97.893254      97.926112      100.84616    
     21700   301.38854      0.0217         1.0688175     -0.0058254705   0.018023203    138.24259      218.78537     -10688.175      97.911134      97.895302      100.85603    
     21800   300.32453      0.0218         1.0726496     -0.0048384038   0.014191103    272.68164      249.57344     -10726.496      97.906853      97.886973      100.86591    
     21900   299.9925       0.0219         1.0821381     -0.0098541192   0.0047025922   257.18366      314.39373     -10821.381      97.89456       97.876383      100.87578    
     22000   300.5374       0.022          1.0844355     -0.0098125874   0.0024051844   389.63437      253.51652     -10844.355        -113.39457     -177.33219     -10740.38       97.904459      97.954087      100.81655    
     21400   300.10608      0.0214         1.0723438     -0.029289301    0.0016942184  -167.34787      23.706135     -10723.438      97.961054      97.893515      100.82642    
     21500   300.85743      0.0215         1.0868407     -0.035795097    0             -101.45322     -137.79648     -10868.407      97.918262      97.918151      100.83629    
     21600   299.89944      0.0216         1.0814846     -0.02318193     0.0053561116   142.28417      22.770309     -10814.846      97.893254      97.926112      100.84616    
     21700   301.38854      0.0217         1.0688175     -0.0058254705   0.018023203    138.24259      218.78537     -10688.175      97.911134      97.895302      100.85603    
     21800   300.32453      0.0218         1.0726496     -0.0048384038   0.014191103    272.68164      249.57344     -10726.496      97.906853  9.90329      0.0226         1.1544296     -0.052632509    0             -154.981       -346.07333     -11544.296      97.861117      97.913301      100.94488    
     22700   302.45052      0.0227         1.1677952     -0.056100324    0             -473.12933     -391.62992     -11677.952      97.918824      97.874065      100.95475    
     22800   299.27152      0.0228         1.1712059     -0.049655456    0             -345.99077     -370.31474     -11712.059      97.899985      97.879481      100.96462    
     22900   300.69326      0.0229         1.2062128     -0.072254902    0             -561.5622      -618.03241     -12062.128      97.87359       97.908778      100.97449    
     23000   300.31947      0.023          1.196209      -0.051073691    0.010003868   -460.16727     -480.15816     -11962.09       97.8973        97.868808      100.98436    
     23100   299.41824      0.0231         1.1738695     -0.020714501    0.032343298   -246.79101     -280.36147     -11738.695      97.883379      97.857134      100.99423    
     23200   300.05257      0.0232         1.1846218     -0.022335648    0.021591051   -142.45535     -291.15088     -11846.218      97.85875       97.87057       101.00411    
     23300   299.76797      0.0233         1.1755993     -0.0067582669   0.030613525   -125.97989      100.70006     -11755.993      97.885801      97.817865      101.01398    
     23400   301.35495      0.0234         1.1796308     -0.0054766759   0.026582063    137.64654     -19.294081     -11796.308      97.817946      97.863445      101.02385    
     23500   300.37202      0.0235         1.1731922      0.0050843765   0.033020602    212.68049      189.32419     -11731.922      97.833491      97.831962      101.03372    
     23600   301.06482      0.0236         1.1673048      0.012259323    0.038908026    164.25153      420.06502     -11673.048      97.886567      97.770428      101.04359    
     23700   300.46859      0.0237         1.1755634      0.0047775793   0.03064946     253.93403      234.57879     -11755.634      97.800881      97.8398        101.05346    
     23800   299.49832      0.0238         1.1814071     -4.6016944e-05  0.024805747    522.23803      151.89049     -11814.071      97.770074      97.868728      101.06333    
     23900   300.37471      0.0239         1.18627       -0.0069031874   0.019942863    172.50115      455.67546     -11862.7        97.878851      97.752937      101.07321    
     24000   299.99222      0.024          1.1828855     -0.0048510359   0.023327364    413.88211      347.41404     -11828.855      97.803804      97.813009      101.08308    
     24100   299.44899      0.0241         1.2060961     -0.024839038    0.00011670207  349.09452      209.2284      -12060.961      97.775159      97.831075      101.09295    
     24200   299.96628      0.0242         1.2113387     -0.027409885    0              115.889        206.88942     -12113.387      97.84679       97.774833      101.10282    
     24300   300.42248      0.0243         1.2155916     -0.02766356     0              178.48853      153.96461     -12155.916      97.82139       97.794986502     -11673.048      97.886567      97.770428      101.04359    
     23700   300.46859      0.0237         1.1755634      0.0047775793   0.03064946     253.93403      234.57879     -11755.634      97.800881      97.8398        101.05346    
     23800   299.49832      0.0238         1.1814071     -4.6016944e-05  0.024805747    522.23803      151.89049     -11814.071      97.770074      97.868728      101.06333    
     23900   300.37471      0.0239         1.18627       -0.0069031874   0.019942863    172.50115      455.67546     -11862.7        97.878851      97.752937      101.07321    
     24000   299.99222      0.024          1.1828855     -0.0048510359   0.023327364    413.88211      347.41404     -11828.855      97.803804      97.813009      101.08308    
     24100   299.44899      0.0241         1.2060961     -0.024839038    0.00011670207  349.09452      209.2284      -12060.961      97.775159      97.831075      101.09   1.2705436     -0.045132559    0             -51.974384     -157.8601      -12705.436      97.789278      97.81339       101.17192    
     25000   298.04069      0.025          1.27942       -0.044355511    0             -136.05952     -268.14516     -12794.2        97.801819      97.800195      101.18179    
     25100   298.73514      0.0251         1.3064882     -0.061384501    0             -436.31504     -326.308       -13064.882      97.835142      97.771303      101.19166    
     25200   298.98264      0.0252         1.3140415     -0.058667463    0             -377.93277     -551.42634     -13140.415      97.79665       97.82318       101.20153    
     25300   300.13583      0.0253         1.3253814     -0.059028403    0             -452.63425     -489.50896     -13253.814      97.810566      97.793397      101.2114     
     25400   299.45259      0.0254         1.3104216     -0.034019146    0.014959812   -416.06166     -271.66896     -13104.216      97.830485      97.750809      101.22128    
     25500   299.785        0.0255         1.3061684     -0.02153343     0.019213002   -65.523897     -159.94761     -13061.684      97.76824       97.781663      101.23115    
     25600   300.99254      0.0256         1.2988444     -0.0070620432   0.026536953    10.651167      29.885641     -12988.444      97.77455       97.759243      101.24102    
     25700   301.57559      0.0257         1.295972       0.00054168546  0.029409446    96.261833      156.89106     -12959.72       97.785852      97.738544      101.25089    
     25800   299.5813       0.0258         1.3035375     -0.0024556288   0.021843906    143.94587      157.77738     -13035.375      97.759841      97.751187      101.26076    
     25900   299.04822      0.0259         1.3168281     -0.011117771    0.0085533178   72.171114     -6.8597104     -13168.281      97.739512      97.769319      101.27063    
     26000   301.42712      0.026          1.3426211     -0.030590667    0             -166.27955     -188.4389      -13426.211      97.756716      97.767986      101.2805     
     26100   300.82178      0.0261         1.350893      -0.034422088    0             -310.9861      -137.97868     -13508.93       97.783588      97.741384      101.29038    
     26200   298.35369      0.0262         1.3485503     -0.02862857     0.0023426309  -190.82471     -173.12403     -13485.503      97.74804       97.760769      101.30025    
     26300   299.07617      0.0263         1.3390751     -0.017783958    0.011817872    56.444338     -86.872136     -13390.751      97.727791      97.766115      101.31012    
     26400   301.84227      0.0264         1.3454487     -0.020654886    0.0054442275   79.897983      114.01613     -13454.487      97.75012       97.725697      101.31999    
     26500   299.66821      0.0265         1.3356109     -0.0078727473   0.015282121    202.05484      239.85408     -13356.109      97.748429      97.701319      101.32986    
     26600   300.69702      0.0266         1.3400514     -0.0081925839   0.01084159     355.13094      301.38837     -13400.514      97.712222      97.724349      101.33973    
    97.739512      97.769319      101.27063    
     26000   301.42712      0.026          1.3426211     -0.030590667    0             -166.27955     -188.4389      -13426.211      97.756716      97.767986      101.2805     
     26100   300.82178      0.0261         1.350893      -0.034422088    0             -310.9861      -137.97868     -13508.93       97.783588      97.741384      101.29038    
     26200   298.35369      0.0262         1.3485503     -0.02862857     0.0023426309  -190.82471     -173.12403     -13485.503      97.74804       97.760769      101.30025    
     26300   299.07617      0.0263         1.3390751     -0.017783958    0.011817872    56.444338     -86.872136     -13390.751      97.727791      97.766115      101.31012    
     26400   301.84227      0.0264         1.3454487     -0.020654886    0.0054442275   79.897983      114.01613     -13454.487      97.75012       97.725697      101.31999    
     26500   299.7456    0              115.63178      123.74962     -13898.2        97.708207      97.696114      101.39896    
     27300   300.20636      0.0273         1.3901243     -0.042156821    0             -6.3650255      63.037503     -13901.243      97.718465      97.706701      101.40883    
     27400   299.37442      0.0274         1.3978442     -0.044637217    0              10.376192      41.462699     -13978.442      97.704843      97.708653      101.4187     
     27500   299.96379      0.0275         1.4172796     -0.055905765    0             -95.297802     -147.54301     -14172.796      97.702027      97.707763      101.42858    
     27600   301.61659      0.0276         1.418962      -0.049697115    0             -237.24615     -195.61062     -14189.62       97.702799      97.711599      101.43845    
     27700   301.15826      0.0277         1.4388056     -0.058628382    0             -247.73045     -401.71593     -14388.056      97.680514      97.737991      101.44832    
     27800   299.61652      0.0278         1.4632979     -0.069138113    0             -444.85708     -427.02087     -14632.979      97.717679      97.698735      101.45819    
     27900   299.72109      0.0279         1.4617617     -0.053889045    0.0015361423  -546.03932     -305.09441     -14617.617      97.753896      97.665198      101.46806    
     28000   299.49382      0.028          1.4722756     -0.050439066    0             -449.46962     -541.92778     -14722.756      97.689662      97.717454      101.47793    
     28100   299.50207      0.0281         1.4721694     -0.039935405    0.00010611925 -411.15124     -384.10988     -14721.694      97.69298       97.697878      101.4878     
     28200   300.66529      0.0282         1.4670655     -0.027106939    0.0052100297  -455.6914      -303.0866      -14670.655      97.734678      97.657088      101.49768    
     28300   300.07578      0.0283         1.4631843     -0.01591968     0.0090912876  -205.26631     -201.2754      -14631.843      97.689499      97.673875      101.50755    
     28400   300.50279      0.0284         1.471028      -0.016445029    0.0012475586  -144.31881     -189.43568     -14710.28       97.642052      97.70733       101.51742    
     28500   302.30668      0.0285         1.4588927     -0.00014841863  0.013382861   -57.734161      67.79379      -14588.927      97.689433      97.646809      101.52729    
     28600   299.80592      0.0286         1.4500635      0.011790882    0.02221201     130.24243      294.15388     -14500.635      97.696045      97.616091      101.53716    
     28700   299.64793      0.0287         1.4429872      0.019285412    0.029288386    466.04568      322.26651     -14429.872      97.612305      97.665681      101.54703    
     28800   302.13775      0.0288         1.4618548      0.00027344495  0.010420724    335.25001      307.07454     -14618.548      97.630401      97.64756       101.5569     
     28900   300.75927      0.0289         1.4486123      0.01220099     0.023663208    404.2802       467.00294     -14486.123      97.655892      97.606261      101.56677    
     29000   300.28285      0     101.49768    
     28300   300.07578      0.0283         1.4631843     -0.01591968     0.0090912876  -205.26631     -201.2754      -14631.843      97.689499      97.673875      101.50755    
     28400   300.50279      0.0284         1.471028      -0.016445029    0.0012475586  -144.31881     -189.43568     -14710.28       97.642052      97.70733       101.51742    
     28500   302.30668      0.0285         1.4588927     -0.00014841863  0.013382861   -57.734161      67.79379      -14588.927      97.689433      97.646809      101.52729    
     28600   299.80592      0.0286         1.4500635      0.011790882    0.02221201     130.24243      294.15388     -14500.635      97.696045      97.616091      101.53716    
     28700   299.64793      0.0287         1.4429872      0.019285412    0.029288386    466.04568      322.26651     -14429.872      97.612305      97.665681      101.54703    
     28800   302.13775      0.0288        6.34043      28.126035     -15167.904      97.655082      97.610495      101.626      
     29600   299.1709       0.0296         1.5264786     -0.047227005    0             -170.47561     -61.388573     -15264.786      97.627481      97.627302      101.63587    
     29700   301.10818      0.0297         1.5526153     -0.06240091     0             -157.4009      -366.49794     -15526.153      97.56793       97.694885      101.64575    
     29800   300.34011      0.0298         1.5502883     -0.051230537    0.0023270243  -249.71763     -211.0514      -15502.883      97.629882      97.628369      101.65562    
     29900   298.08373      0.0299         1.54675       -0.037878453    0.005865343   -239.14286     -21.164803     -15467.5        97.655549      97.597069      101.66549    
     30000   297.81907      0.03           1.5577951     -0.038320679    0             -139.28463     -222.97682     -15577.951      97.578797      97.667036      101.67536    
     30100   300.99824      0.0301         1.5703993     -0.040175244    0             -183.8234      -210.51788     -15703.993      97.595818      97.640042      101.68523    
     30200   302.95656      0.0302         1.5774368     -0.037113265    0             -425.02956     -76.381027     -15774.368      97.672148      97.568748      101.6951     
     30300   300.68525      0.0303         1.5753637     -0.026965228    0.0020730739  -77.810695     -132.26288     -15753.637      97.584205      97.625103      101.70497    
     30400   298.88466      0.0304         1.566075      -0.012075706    0.011361828   -17.034817     -72.321871     -15660.75       97.584993      97.615695      101.71485    
     30500   299.92432      0.0305         1.5763966     -0.016436688    0.0010402326  -131.1982      -0.79261572    -15763.966      97.648221      97.553784      101.72472    
     30600   298.90228      0.0306         1.5960527     -0.029135379    0             -124.04871     -131.96722     -15960.527      97.582764      97.604322      101.73459    
     30700   300.259        0.0307         1.6110544     -0.038293218    0             -175.56435     -415.97277     -16110.544      97.54782       97.652803      101.74446    
     30800   301.01325      0.0308         1.6126349     -0.033639028    0             -483.2492      -240.24332     -16126.349      97.643299      97.555833      101.75433    
     30900   298.73894      0.0309         1.625921      -0.039008077    0             -389.35688     -343.38689     -16259.21       97.608254      97.584263      101.7642     
     31000   297.48002      0.031          1.6263947     -0.032621826    0             -142.1058      -392.14789     -16263.947      97.516419      97.653623      101.77407    
     31100   298.85352      0.0311         1.6252181     -0.025963281    0.0011766712  -242.37055     -59.859043     -16252.181      97.608215      97.558629      101.78395    
     31200   298.98879      0.0312         1.6009687      0.00063930666  0.025426073    4.9376474      103.84131     -16009.687      97.60097       97.542689      101.79382    
     31300   299.2342       0.0313         1.6104364  0600   298.90228      0.0306         1.5960527     -0.029135379    0             -124.04871     -131.96722     -15960.527      97.582764      97.604322      101.73459    
     30700   300.259        0.0307         1.6110544     -0.038293218    0             -175.56435     -415.97277     -16110.544      97.54782       97.652803      101.74446    
     30800   301.01325      0.0308         1.6126349     -0.033639028    0             -483.2492      -240.24332     -16126.349      97.643299      97.555833      101.75433    
     30900   298.73894      0.0309         1.625921      -0.039008077    0             -389.35688     -343.38689     -16259.21       97.608254      97.584263      101.7642     
     31000   297.48002      0.031          1.6263947     -0.032621826    0             -142.1058      -392.14789     -16263.947      97.516419      97.653623      101.77407    
     31100   298.85352      0.0311         1.6252181     -0.0259632  -16503.227      97.584562      97.506877      101.85305    
     31900   301.37752      0.0319         1.6611006     -0.033280944    0             -92.789212     -47.666244     -16611.006      97.544048      97.556177      101.86292    
     32000   300.56518      0.032          1.6665401     -0.034705951    0             -36.6369       -111.60308     -16665.401      97.524073      97.571401      101.87279    
     32100   299.10684      0.0321         1.6760717     -0.039152193    0             -125.49725     -7.0999383     -16760.717      97.571289      97.50831       101.88266    
     32200   299.62766      0.0322         1.6827896     -0.037687981    0             -168.29917     -105.00007     -16827.896      97.563237      97.528561      101.89253    
     32300   300.28155      0.0323         1.6873986     -0.034600748    0             -37.774608     -189.79227     -16873.986      97.488231      97.589604      101.9024     
     32400   298.20025      0.0324         1.6848822     -0.024362413    0.0025163755  -35.057315     -32.235392     -16848.822      97.525153      97.534728      101.91227    
     32500   300.23127      0.0325         1.692567      -0.024984423    0             -196.58315      169.62458     -16925.67       97.595585      97.466539      101.92215    
     32600   299.52775      0.0326         1.6872032     -0.014132352    0.0053638117   195.71003      17.832348     -16872.032      97.478359      97.564215      101.93202    
     32700   300.29356      0.0327         1.7008202     -0.021850598    0              207.17347      22.915941     -17008.202      97.468427      97.557843      101.94189    
     32800   300.76149      0.0328         1.6894148     -0.0065360125   0.011405373    103.59062      403.02746     -16894.148      97.562592      97.447598      101.95176    
     32900   301.41759      0.0329         1.6869734     -0.0015072731   0.013846834    320.25364      394.55064     -16869.734      97.490197      97.510272      101.96163    
     33000   300.62511      0.033          1.6898291     -0.0020341013   0.010991109    456.25065      271.29696     -16898.291      97.435425      97.548233      101.9715     
     33100   299.55198      0.0331         1.6929946     -0.0035073219   0.0078256015   284.48735      546.37596     -16929.946      97.527457      97.44157       101.98137    
     33200   301.18237      0.0332         1.703789      -0.012201832    0              278.88478      412.22169     -17037.89       97.519059      97.463337      101.99124    
     33300   301.16296      0.0333         1.7233469     -0.028164837    0              378.12778      88.661945     -17233.469      97.425397      97.552745      102.00112    
     33400   299.26076      0.0334         1.7322063     -0.032291882    0              200.42758      164.75771     -17322.063      97.475596      97.500478      102.01099    
     33500   299.18937      0.0335         1.7366813     -0.032355387    0              22.125699      151.78943     -17366.813      97.517534      97.46062       102.02086    
     33600   300.77869      0.0336         1.7504121     -0.039765317    0     329         1.6869734     -0.0015072731   0.013846834    320.25364      394.55064     -16869.734      97.490197      97.510272      101.96163    
     33000   300.62511      0.033          1.6898291     -0.0020341013   0.010991109    456.25065      271.29696     -16898.291      97.435425      97.548233      101.9715     
     33100   299.55198      0.0331         1.6929946     -0.0035073219   0.0078256015   284.48735      546.37596     -16929.946      97.527457      97.44157       101.98137    
     33200   301.18237      0.0332         1.703789      -0.012201832    0              278.88478      412.22169     -17037.89       97.519059      97.463337      101.99124    
     33300   301.16296      0.0333         1.7233469     -0.028164837    0              378.12778      88.661945     -17233.469      97.425397      97.552745      102.00112    
     33400   299.26076      0.0334         1.7322063     -0.032291882    0              200.36      97.432426      102.08009    
     34200   299.84788      0.0342         1.8014325     -0.035126132    0.00043874942 -214.49406     -249.34323     -18014.325      97.489514      97.473317      102.08996    
     34300   299.81531      0.0343         1.8043521     -0.029945224    0             -5.4066352     -303.83035     -18043.521      97.428411      97.519799      102.09983    
     34400   299.12239      0.0344         1.8075408     -0.025600449    0             -173.2424      -7.6248135     -18075.408      97.494655      97.429682      102.1097     
     34500   301.65554      0.0345         1.8147268     -0.024981898    0             -168.4002      -88.441334     -18147.268      97.476971      97.443465      102.11957    
     34600   300.7584       0.0346         1.7980735     -0.0035624689   0.016653287    117.8558       41.668769     -17980.735      97.423548      97.483666      102.12944    
     34700   296.77516      0.0347         1.797468      -0.00016580728  0.017258815    292.92331      262.13683     -17974.68       97.437566      97.442307      102.13932    
     34800   299.52728      0.0348         1.7981947      0.0019014895   0.016532145    193.17833      356.8997      -17981.947      97.466611      97.406226      102.14919    
     34900   299.89793      0.0349         1.8118911     -0.008787627    0.0028357399   239.04491      155.31306     -18118.911      97.429074      97.443648      102.15906    
     35000   298.43501      0.035          1.8171231     -0.0118557      0              269.80912      186.3194      -18171.231      97.40152       97.451787      102.16893    
     35100   301.33037      0.0351         1.8338939     -0.025424251    0              145.03275      65.499514     -18338.939      97.432214      97.430649      102.1788     
     35200   302.65246      0.0352         1.8441233     -0.031384551    0             -72.638188      138.24169     -18441.233      97.458603      97.399565      102.18867    
     35300   299.2112       0.0353         1.8425786     -0.026017256    0.0015446454   244.13345      64.820586     -18425.786      97.382194      97.45924       102.19854    
     35400   301.32003      0.0354         1.8580704     -0.036456034    0              84.99665       75.770898     -18580.704      97.421057      97.419988      102.20842    
     35500   301.62237      0.0355         1.8602779     -0.034108433    0             -160.80854      170.11339     -18602.779      97.502915      97.347274      102.21829    
     35600   300.09707      0.0356         1.8651327     -0.032257365    0              51.223274     -19.930775     -18651.327      97.396352      97.443112      102.22816    
     35700   299.57712      0.0357         1.8733202     -0.032859591    0              57.569018     -178.83737     -18733.202      97.375816      97.461376      102.23803    
     35800   298.87168      0.0358         1.8801797     -0.031520637    0             -137.8009       1.8707443     -18801.797      97.471855      97.36599       102.2479     
     35900   300.89779      0.0359         1.8888569     -0.03250125     0             -185.30778     -1 -0.031384551    0             -72.638188      138.24169     -18441.233      97.458603      97.399565      102.18867    
     35300   299.2112       0.0353         1.8425786     -0.026017256    0.0015446454   244.13345      64.820586     -18425.786      97.382194      97.45924       102.19854    
     35400   301.32003      0.0354         1.8580704     -0.036456034    0              84.99665       75.770898     -18580.704      97.421057      97.419988      102.20842    
     35500   301.62237      0.0355         1.8602779     -0.034108433    0             -160.80854      170.11339     -18602.779      97.502915      97.347274      102.21829    
     35600   300.09707      0.0356         1.8651327     -0.032257365    0              51.223274     -19.930775     -18651.327      97.396352      97.443112      102.22816    
     35700   299.57712      0.0357         1.8733202     -0.032859591    0              57.569018     -178.83737     2.30713    
     36500   299.86514      0.0365         1.9235833     -0.028270478    0             -79.949089      78.44524      -19235.833      97.454791      97.331417      102.317      
     36600   300.30875      0.0366         1.9189888     -0.018290332    0.0045945369   31.354216      71.646514     -19189.888      97.387904      97.389925      102.32687    
     36700   300.36832      0.0367         1.9259144     -0.019956503    0              226.16998     -59.557398     -19259.144      97.299538      97.448492      102.33674    
     36800   301.11832      0.0368         1.9234142     -0.013132846    0.0025002094  -22.730116      160.98711     -19234.142      97.424528      97.325184      102.34661    
     36900   301.81342      0.0369         1.9398722     -0.024489314    0             -157.15336      111.59504     -19398.722      97.451587      97.300825      102.35649    
     37000   299.75147      0.037          1.9550516     -0.03366122     0              60.425544     -186.74989     -19550.516      97.304479      97.439511      102.36636    
     37100   298.43139      0.0371         1.951224      -0.025394381    0.0038275966   45.12976      -39.261978     -19512.24       97.337238      97.395466      102.37623    
     37200   300.45081      0.0372         1.9616499     -0.029811747    0             -204.39051      115.55491     -19616.499      97.428211      97.313208      102.3861     
     37300   298.47098      0.0373         1.9599701     -0.022041184    0.0016797635  -49.369289     -22.200288     -19599.701      97.351693      97.376999      102.39597    
     37400   297.42499      0.0374         1.9608613     -0.018808296    0.00078861831  19.131756     -18.429504     -19608.613      97.321575      97.391038      102.40584    
     37500   300.40072      0.0375         1.9737811     -0.026708351    0             -170.86673     -126.33404     -19737.811      97.378668      97.342539      102.41571    
     37600   298.4224       0.0376         1.9743303     -0.021723404    0              2.6017878     -25.572688     -19743.303      97.369482      97.344148      102.42559    
     37700   298.37441      0.0377         1.9818417     -0.02364208     0             -10.346857     -96.333242     -19818.417      97.338473      97.365335      102.43546    
     37800   300.85482      0.0378         1.9891583     -0.024384231    0             -176.9958      -108.34548     -19891.583      97.347669      97.347667      102.44533    
     37900   300.10775      0.0379         1.9830423     -0.013951287    0.0061159277   39.283994      30.592828     -19830.423      97.353907      97.33555       102.4552     
     38000   298.91266      0.038          2.0010713     -0.027378307    0              36.622054      148.43116     -20010.713      97.363442      97.305848      102.46507    
[...]
     85700   299.78477      0.0857         4.7858559     -0.0040206293   0.012953069    300.09897      236.43898     -47858.559      95.961873      95.915523      107.17373    
     85800   300.2964       0.0858         4.7789513      0.0045551447   0.019857598    422.36469      483.85562     -47789.513      95.983508      95.877871      107.1836     
     85900   298.99042      0.0859         4.7903535     -0.003835817    0.0084554771   571.93438      519.22253     -47903.535      95.978148      95.856234      107.19347    
     86000   299.97258      0.086          4.7872833      0.0015353149   0.011525628    521.94539      575.01816     -47872.833      95.985125      95.851886      107.20334    
     86100   300.04503      0.0861         4.7947474     -0.0041958361   0.0040615807   394.35102      439.5437      -47947.474      95.984784      95.862949      107.21321    
     86200   298.92485      0.0862         4.8116864     -0.018545235    0              308.73571      357.59446     -48116.864      95.971803      95.866046      107.22308    
     86300   299.30759      0.0863         4.8242273     -0.028544313    0              234.87184      298.80879     -48242.273      95.957662      95.887669      107.23296    
     86400   300.7069       0.0864         4.8217372     -0.022922126    0.0024900738   150.87961      144.58581     -48217.372      95.914355      95.934839      107.24283    
     86500   300.47338      0.0865         4.83894       -0.035785006    0              161.93265      222.37553     -48389.4        95.857506      95.987048      107.2527     
     86600   299.93134      0.0866         4.8437959     -0.036038122    0              171.62897      199.40258     -48437.959      95.819296      96.010893      107.26257    
     86700   300.81578      0.0867         4.8418055     -0.028452775    0.0019903781   262.89216      239.50652     -48418.055      95.803938      96.027613      107.27244    
     86800   298.70756      0.0868         4.8514045     -0.030806372    0              220.15385      226.12766     -485140040615807   394.35102      439.5437      -47947.474      95.984784      95.862949      107.21321    
     86200   298.92485      0.0862         4.8116864     -0.018545235    0              308.73571      357.59446     -48116.864      95.971803      95.866046      107.22308    
     86300   299.30759      0.0863         4.8242273     -0.028544313    0              234.87184      298.80879     -48242.273      95.957662      95.887669      107.23296    
     86400   300.7069       0.0864         4.8217372     -0.022922126    0.0024900738   150.87961      144.58581     -48217.372      95.914355      95.934839      107.24283    
     86500   300.47338      0.0865         4.83894       -0.035785006    0              161.93265      222.37553     -48389.4        95.857506      95.987048      107.2527     
     86600   299.93134      0.0866         4.8437959     -0.036038122    0              171.62897      199.40258     -48437.959      95.400   299.21159      0.0874         4.8830549     -0.024207899    0              279.95343      370.96982     -48830.549      95.960679      95.826626      107.34154    
     87500   299.35837      0.0875         4.8801471     -0.017179454    0.0029077309   266.90011      291.78813     -48801.471      95.844212      95.946775      107.35141    
     87600   300.11921      0.0876         4.8873176     -0.019997734    0              357.47233      233.24121     -48873.176      95.781941      96.00704       107.36128    
     87700   299.16924      0.0877         4.9038712     -0.030344838    0              236.01104      223.46535     -49038.712      95.803412      95.982361      107.37115    
     87800   299.93896      0.0878         4.9246262     -0.043777594    0              125.51538      112.6573      -49246.262      95.848856      95.939223      107.38103    
     87900   299.83806      0.0879         4.919664      -0.034270284    0.0049621923   67.745413      47.094918     -49196.64       95.898333      95.895013      107.3909     
     88000   300.77603      0.088          4.9443726     -0.049003217    0             -102.36364     -65.262299     -49443.726      95.930773      95.865517      107.40077    
     88100   300.80011      0.0881         4.9557607     -0.051715356    0             -147.67329     -94.230794     -49557.607      95.928957      95.854513      107.41064    
     88200   300.15843      0.0882         4.9355755     -0.025077654    0.020185199    9.6096006      59.597846     -49355.755      95.919379      95.860322      107.42051    
     88300   300.95498      0.0883         4.9477846     -0.029567214    0.007976049    55.225825      99.117952     -49477.846      95.892391      95.877998      107.43038    
     88400   300.385        0.0884         4.9511113     -0.02608826     0.0046493544  -29.188024      104.4986      -49511.113      95.841958      95.919679      107.44025    
     88500   297.91619      0.0885         4.9558738     -0.023278028    0              106.96704      8.3327746     -49558.738      95.745188      96.009746      107.45013    
     88600   300.12209      0.0886         4.9757452     -0.034306701    0              2.9008968     -46.888307     -49757.452      95.703482      96.052227      107.46       
     88700   299.39705      0.0887         4.9624778     -0.015178613    0.013267434    51.981144      15.274096     -49624.778      95.720075      96.031943      107.46987    
     88800   299.19784      0.0888         4.9734773     -0.021293025    0.0022679075   55.588955      3.4447698     -49734.773      95.771753      95.97367       107.47974    
     88900   298.43676      0.0889         4.9763155     -0.018466074    0             -27.093685      31.647077     -49763.155      95.860484      95.869691      107.48961    
     89000   298.91864      0.089          4.9909323     -0.028426901    0              25.704724      104.38927     -49909.323      95.947416      95.785738      107.49948    
     89100   301.27419      0.0891         4.9762054     -0.011655481    0.014726953    78.251129      77.455803     -49762.054      95.989636         104.4986      -49511.113      95.841958      95.919679      107.44025    
     88500   297.91619      0.0885         4.9558738     -0.023278028    0              106.96704      8.3327746     -49558.738      95.745188      96.009746      107.45013    
     88600   300.12209      0.0886         4.9757452     -0.034306701    0              2.9008968     -46.888307     -49757.452      95.703482      96.052227      107.46       
     88700   299.39705      0.0887         4.9624778     -0.015178613    0.013267434    51.981144      15.274096     -49624.778      95.720075      96.031943      107.46987    
     88800   299.19784      0.0888         4.9734773     -0.021293025    0.0022679075   55.588955      3.4447698     -49734.773      95.771753      95.97367       107.47974    
     88900   298.43676      0.0889         4.9763155     -0.018466074    0             -27.093685      31.647077     -49763.155      95.860484      95.869691    97         5.0119022     -0.022002643    0              271.2558       274.84105     -50119.022      95.9784        95.698304      107.56858    
     89800   301.52951      0.0898         5.0101605     -0.016592615    0.0017417074   304.08894      260.71171     -50101.605      95.977874      95.68892       107.57845    
     89900   300.60559      0.0899         5.014374      -0.017000298    0              424.71505      419.39085     -50143.74       96.030086      95.616374      107.58833    
     90000   298.49604      0.09           5.016791      -0.016831364    0              432.51903      402.45478     -50167.91       96.139846      95.506605      107.5982     
     90100   300.92678      0.0901         5.0275981     -0.022499248    0              158.43138      222.7366      -50275.981      96.268311      95.396102      107.60807    
     90200   299.57772      0.0902         5.0349538     -0.026380804    0              46.154784      90.928007     -50349.538      96.348987      95.312694      107.61794    
     90300   299.7978       0.0903         5.0377902     -0.024882337    0             -4.0076314      22.456072     -50377.902      96.376061      95.287947      107.62781    
     90400   300.39498      0.0904         5.048931      -0.02893705     0             -37.444515      42.431501     -50489.31       96.37038       95.296634      107.63768    
     90500   299.06367      0.0905         5.0588241     -0.032600607    0              135.64421      32.880014     -50588.241      96.336111      95.311911      107.64755    
     90600   299.57795      0.0906         5.0443989     -0.0138265      0.014425187    219.03484      171.22142     -50443.989      96.343316      95.292441      107.65743    
     90700   302.5972       0.0907         5.0613044     -0.025791799    0              79.117618      134.77018     -50613.044      96.359914      95.280365      107.6673     
     90800   300.02377      0.0908         5.0740235     -0.03212463     0              88.931229      103.02037     -50740.235      96.354023      95.277882      107.67717    
     90900   300.63638      0.0909         5.0707599     -0.023222465    0.0032635747   49.801943      71.363155     -50707.599      96.353765      95.271681      107.68704    
     91000   300.57384      0.091          5.0581907     -0.0065132519   0.015832815    208.1469       209.99996     -50581.907      96.391011      95.226016      107.69691    
     91100   300.18351      0.0911         5.052697       0.0014903322   0.021326512    157.23265      197.17438     -50526.97       96.468628      95.132487      107.70678    
     91200   299.7991       0.0912         5.0686521     -0.011094942    0.0053714022   96.511207      202.57953     -50686.521      96.540938      95.055518      107.71665    
     91300   299.70922      0.0913         5.068112      -0.0075226557   0.0059115024   118.93058      132.5307      -50681.12       96.584856      95.019412      107.72652    
     91400   300.54285      0.0914         5.0753003     -0.012073989    0              211.50974      108.32482     -50753.003      96.612877      94.983953      107.7364  44      96.359914      95.280365      107.6673     
     90800   300.02377      0.0908         5.0740235     -0.03212463     0              88.931229      103.02037     -50740.235      96.354023      95.277882      107.67717    
     90900   300.63638      0.0909         5.0707599     -0.023222465    0.0032635747   49.801943      71.363155     -50707.599      96.353765      95.271681      107.68704    
     91000   300.57384      0.091          5.0581907     -0.0065132519   0.015832815    208.1469       209.99996     -50581.907      96.391011      95.226016      107.69691    
     91100   300.18351      0.0911         5.052697       0.0014903322   0.021326512    157.23265      197.17438     -50526.97       96.468628      95.132487      107.70678    
     91200   299.7991       0.0912         5.0686521     -0.011094942    0.0053714022   96.511207      202.57953     -50686.521      96.540938      95.055518      107.71665    
     9130-0.029614551    0.013736803   -67.69588      -180.79014     -51146.03       96.680333      94.914277      107.79562    
     92100   299.31719      0.0921         5.130816      -0.038015629    0             -112.34246     -213.56715     -51308.16       96.741895      94.854554      107.8055     
     92200   299.12805      0.0922         5.1263657     -0.027793974    0.0044502977  -124.19475     -265.03257     -51263.657      96.870946      94.705464      107.81537    
     92300   300.31992      0.0923         5.1311825     -0.02630372     0             -216.81012     -252.78988     -51311.825      97.029807      94.545481      107.82524    
     92400   300.67072      0.0924         5.1064542      0.0015399975   0.02472833    -75.793149     -144.53362     -51064.542      97.158853      94.407987      107.83511    
     92500   299.37543      0.0925         5.0970365      0.012681988    0.034146021   -61.229536     -163.186       -50970.365      97.278465      94.278291      107.84498    
     92600   298.42104      0.0926         5.0923535      0.017986448    0.038829012   -44.534364     -126.94248     -50923.535      97.413994      94.134497      107.85485    
     92700   300.72877      0.0927         5.0744159      0.034462651    0.056766537   -225.17827     -280.11608     -50744.159      97.583557      93.976896      107.86472    
     92800   299.64863      0.0928         5.0611207      0.045148057    0.070061766   -179.94559     -156.12939     -50611.207      97.738584      93.80537       107.8746     
     92900   299.84323      0.0929         5.0479489      0.050280806    0.083233609   -108.7115      -136.93187     -50479.489      97.870929      93.6519        107.88447    
     93000   300.14611      0.093          5.0109381      0.07692507     0.12024436     74.608344      19.414518     -50109.381      98.029688      93.481108      107.89434    
     93100   300.97054      0.0931         5.0023644      0.072653626    0.12881808     24.921029     -25.705285     -50023.644      98.203952      93.301028      107.90421    
     93200   299.71133      0.0932         4.9640292      0.094755215    0.16715332     20.443514     -96.030395     -49640.292      98.367021      93.129356      107.91408    
     93300   299.22873      0.0933         4.9423955      0.097510174    0.18878697     100.92389     -33.50542      -49423.955      98.542444      92.947082      107.92395    
     93400   300.95171      0.0934         4.9071291      0.11284407     0.22405338     147.36649     -67.023793     -49071.291      98.735174      92.747417      107.93382    
     93500   299.88697      0.0935         4.8690713      0.12810534     0.26211116     119.81043     -11.870256     -48690.713      98.9312        92.528639      107.9437     
     93600   298.43601      0.0936         4.8272661      0.14340186     0.30391642     172.00256      15.177696     -48272.661      99.13007       92.320806      107.95357    
     93700   300.5131       0.0937         4.7966648      0.14622802     0.33451769     110.39822     -122.58235     -47966.648      99.33552       92.123637      107.96344    
     93800   299.3205.481108      107.89434    
     93100   300.97054      0.0931         5.0023644      0.072653626    0.12881808     24.921029     -25.705285     -50023.644      98.203952      93.301028      107.90421    
     93200   299.71133      0.0932         4.9640292      0.094755215    0.16715332     20.443514     -96.030395     -49640.292      98.367021      93.129356      107.91408    
     93300   299.22873      0.0933         4.9423955      0.097510174    0.18878697     100.92389     -33.50542      -49423.955      98.542444      92.947082      107.92395    
     93400   300.95171      0.0934         4.9071291      0.11284407     0.22405338     147.36649     -67.023793     -49071.291      98.735174      92.747417      107.93382    
     93500   299.88697      0.0935         4.8690713      0.12810534     0.26211116     119.81043     -11.870256     -48690.713      98.9312        92.528639      107.9437     
     93600   298.43601      0.09366     134.5534      -214.15532     -44177.072      100.72066      90.662199      108.02267    
     94400   298.95347      0.0944         4.325472       0.30998316     0.80571045     176.41961     -142.91607     -43254.72       100.97088      90.388528      108.03254    
     94500   300.65099      0.0945         4.2303562      0.34122748     0.90082629     226.05526     -159.57818     -42303.562      101.21286      90.138448      108.04241    
     94600   300.31099      0.0946         4.1509584      0.35299453     0.98022411     149.06392     -268.49542     -41509.584      101.47582      89.870773      108.05228    
     94700   299.41576      0.0947         4.0606218      0.36972679     1.0705607      190.26248     -261.10268     -40606.218      101.72575      89.592567      108.06215    
     94800   300.59148      0.0948         3.9427582      0.40649642     1.1884243      274.7921      -257.43875     -39427.582      101.99826      89.302089      108.07202    
     94900   300.2395       0.0949         3.7997534      0.45938132     1.3314291      280.99737     -305.63947     -37997.534      102.29125      88.993783      108.08189    
     95000   300.47788      0.095          3.6695391      0.49276857     1.4616434      180.6741      -432.77202     -36695.391      102.588        88.679373      108.09177    
     95100   300.32207      0.0951         3.5062041      0.55077649     1.6249783      124.59178     -305.97798     -35062.041      102.87906      88.36428       108.10164    
     95200   301.05756      0.0952         3.3298121      0.61350617     1.8013704      95.291034     -433.65714     -33298.121      103.14698      88.067471      108.11151    
     95300   302.31809      0.0953         3.2029391      0.61890235     1.9282434      39.465523     -174.07616     -32029.391      103.3792       87.800341      108.12138    
Fix halt condition for fix-id halt_peak_fix met on step 95400 with value 1
     95400   301.39044      0.0954         3.076638       0.62032008     2.0545445      37.582645      0.71942075    -30766.38       103.50968      87.639128      108.13125    
Loop time of 432.175 on 1 procs for 95400 steps with 55296 atoms

Performance: 38.145 ns/day, 0.629 hours/ns, 220.744 timesteps/s, 12.206 Matom-step/s
99.8% CPU use with 1 MPI tasks x 1 OpenMP threads

MPI task timing breakdown:
Section |  min time  |  avg time  |  max time  |%varavg| %total
---------------------------------------------------------------
Pair    | 166.83     | 166.83     | 166.83     |   0.0 | 38.60
Neigh   | 0.17158    | 0.17158    | 0.17158    |   0.0 |  0.04
Comm    | 11.149     | 11.149     | 11.149     |   0.0 |  2.58
Output  | 89.906     | 89.906     | 89.906     |   0.0 | 20.80
Modify  | 153.25     | 153.25     | 153.25     |   0.0 | 35.46
Other   |            | 10.87      |            |       |  2.52

Nlocal:          55296 ave       55296 max       55296 min
Histogram: 1 0 0 0 0 0 0 0 0 0
Nghost:          30547 ave       30547 max       30547 min
Histogram: 1 0 0 0 0 0 0 0 0 0
Neighs:              0 ave           0 max           0 min
Histogram: 1 0 0 0 0 0 0 0 0 0
FullNghs:  5.59141e+06 ave 5.59141e+06 max 5.59141e+06 min
Histogram: 1 0 0 0 0 0 0 0 0 0

Total # of neighbors = 5591406
Ave neighs/atom = 101.11773
Neighbor list builds = 173
Dangerous builds = 0


---------------------------------------------------------------------
      Device Time Info (average): 
---------------------------------------------------------------------
Data Transfer:   23.9281 s.
Neighbor copy:   0.0052 s.
Neighbor build:  0.0614 s.
Force calc:      94.0726 s.
Device Overhead: 1.7465 s.
CPU Neighbor:    0.1142 s.
CPU Cast/Pack:   47.2357 s.
CPU Driver_Time: 1.3954 s.
CPU Idle_Time:   92.7361 s.
Average split:   1.0000.
Max Mem / Proc:  91.41 MB.
Prefetch mode:   None.
Vector width:    32.
Lanes / atom:    4.
Pair block:      256.
Neigh block:     128.
Neigh mode:      Hybrid (binning on host) with subgroup support.
Neigh sorting:   Unavailable or disabled.
---------------------------------------------------------------------

Total wall time: 0:07:21
  |            |       |  2.52

Nlocal:          55296 ave       55296 max       55296 min
Histogram: 1 0 0 0 0 0 0 0 0 0
Nghost:          30547 ave       30547 max       30547 min
Histogram: 1 0 0 0 0 0 0 0 0 0
Neighs:              0 ave           0 max           0 min
Histogram: 1 0 0 0 0 0 0 0 0 0
FullNghs:  5.59141e+06 ave 5.59141e+06 max 5.59141e+06 min
Histogram: 1 0 0 0 0 0 0 0 0 0

Total # of neighbors = 5591406
Ave neighs/atom = 101.11773
Neighbor list builds = 173
Dangerous builds = 0
Total wall time: 0:07:21
