(written by ASE)

6912 atoms
1 atom types

0.0      49.079999999999998  xlo xhi
0.0      49.079999999999998  ylo yhi
0.0      49.079999999999998  zlo zhi

Atoms # atomic

     1   1                       0                       0                       0
     2   1                       0      2.0449999999999999      2.0449999999999999
     3   1      2.0449999999999999                       0      2.0449999999999999
     4   1      2.0449999999999999      2.0449999999999999                       0
     5   1                       0                       0      4.0899999999999999
     6   1                       0      2.0449999999999999      6.1349999999999998
     7   1      2.0449999999999999                       0      6.1349999999999998
     8   1      2.0449999999999999      2.0449999999999999      4.0899999999999999
     9   1                       0                       0      8.1799999999999997
    10   1                       0      2.0449999999999999                  10.225
    11   1      2.0449999999999999                       0                  10.225
    12   1      2.0449999999999999      2.0449999999999999      8.1799999999999997
    13   1                       0                       0                   12.27
    14   1                       0      2.0449999999999999                  14.315
    15   1      2.0449999999999999                       0                  14.315
    16   1      2.0449999999999999      2.0449999999999999                   12.27
    17   1                       0                       0      16.359999999999999
    18   1                       0      2.0449999999999999      18.405000000000001
    19   1      2.0449999999999999                       0      18.405000000000001
    20   1      2.0449999999999999      2.0449999999999999      16.359999999999999
    21   1                       0                       0      20.449999999999999
    22   1                       0      2.0449999999999999      22.494999999999997
    23   1      2.0449999999999999                       0      22.494999999999997
    24   1      2.0449999999999999      2.0449999999999999      20.449999999999999
    25   1                       0                       0      24.539999999999999
    26   1                       0      2.0449999999999999      26.585000000000001
    27   1      2.0449999999999999                       0      26.585000000000001
    28   1      2.0449999999999999      2.0449999999999999      24.539999999999999
    29   1                       0                       0      28.629999999999999
    30   1                       0      2.0449999999999999      30.674999999999997
    31   1      2.0449999999999999                       0      30.674999999999997
    32   1      2.0449999999999999      2.0449999999999999      28.629999999999999
    33   1                       0                       0      32.719999999999999
    34   1                       0      2.0449999999999999      34.765000000000001
    35   1      2.0449999999999999                       0      34.765000000000001
    36   1      2.0449999999999999      2.0449999999999999      32.719999999999999
    37   1                       0                       0      36.810000000000002
    38   1                       0      2.0449999999999999      38.855000000000004
    39   1      2.0449999999999999                       0      38.855000000000004
    40   1      2.0449999999999999      2.0449999999999999      36.810000000000002
    41   1                       0                       0      40.899999999999999
    42   1                       0      2.0449999999999999                  42.945
    43   1      2.0449999999999999                       0                  42.945
    44   1      2.0449999999999999      2.0449999999999999      40.899999999999999
    45   1                       0                       0      44.989999999999995
    46   1                       0      2.0449999999999999      47.034999999999997
    47   1      2.0449999999999999                       0      47.034999999999997
    48   1      2.0449999999999999      2.0449999999999999      44.989999999999995
    49   1                       0      4.0899999999999999                       0
    50   1                       0      6.1349999999999998      2.0449999999999999
    51   1      2.0449999999999999      4.0899999999999999      2.0449999999999999
    52   1      2.0449999999999999      6.1349999999999998                       0
    53   1                       0      4.0899999999999999      4.0899999999999999
    54   1                       0      6.1349999999999998      6.1349999999999998
    55   1      2.0449999999999999      4.0899999999999999      6.1349999999999998
    56   1      2.0449999999999999      6.1349999999999998      4.0899999999999999
    57   1                       0      4.0899999999999999      8.1799999999999997
    58   1                       0      6.1349999999999998                  10.225
    59   1      2.0449999999999999      4.0899999999999999                  10.225
    60   1      2.0449999999999999      6.1349999999999998      8.1799999999999997
    61   1                       0      4.0899999999999999                   12.27
    62   1                       0      6.1349999999999998                  14.315
    63   1      2.0449999999999999      4.0899999999999999                  14.315
    64   1      2.0449999999999999      6.1349999999999998                   12.27
    65   1                       0      4.0899999999999999      16.359999999999999
    66   1                       0      6.1349999999999998      18.405000000000001
    67   1      2.0449999999999999      4.0899999999999999      18.405000000000001
    68   1      2.0449999999999999      6.1349999999999998      16.359999999999999
    69   1                       0      4.0899999999999999      20.449999999999999
    70   1                       0      6.1349999999999998      22.494999999999997
    71   1      2.0449999999999999      4.0899999999999999      22.494999999999997
    72   1      2.0449999999999999      6.1349999999999998      20.449999999999999
    73   1                       0      4.0899999999999999      24.539999999999999
    74   1                       0      6.1349999999999998      26.585000000000001
    75   1      2.0449999999999999      4.0899999999999999      26.585000000000001
    76   1      2.0449999999999999      6.1349999999999998      24.539999999999999
    77   1                       0      4.0899999999999999      28.629999999999999
    78   1                       0      6.1349999999999998      30.674999999999997
    79   1      2.0449999999999999      4.0899999999999999      30.674999999999997
    80   1      2.0449999999999999      6.1349999999999998      28.629999999999999
    81   1                       0      4.0899999999999999      32.719999999999999
    82   1                       0      6.1349999999999998      34.765000000000001
    83   1      2.0449999999999999      4.0899999999999999      34.765000000000001
    84   1      2.0449999999999999      6.1349999999999998      32.719999999999999
    85   1                       0      4.0899999999999999      36.810000000000002
    86   1                       0      6.1349999999999998      38.855000000000004
    87   1      2.0449999999999999      4.0899999999999999      38.855000000000004
    88   1      2.0449999999999999      6.1349999999999998      36.810000000000002
    89   1                       0      4.0899999999999999      40.899999999999999
    90   1                       0      6.1349999999999998                  42.945
    91   1      2.0449999999999999      4.0899999999999999                  42.945
    92   1      2.0449999999999999      6.1349999999999998      40.899999999999999
    93   1                       0      4.0899999999999999      44.989999999999995
    94   1                       0      6.1349999999999998      47.034999999999997
    95   1      2.0449999999999999      4.0899999999999999      47.034999999999997
    96   1      2.0449999999999999      6.1349999999999998      44.989999999999995
    97   1                       0      8.1799999999999997                       0
    98   1                       0                  10.225      2.0449999999999999
    99   1      2.0449999999999999      8.1799999999999997      2.0449999999999999
   100   1      2.0449999999999999                  10.225                       0
   101   1                       0      8.1799999999999997      4.0899999999999999
   102   1                       0                  10.225      6.1349999999999998
   103   1      2.0449999999999999      8.1799999999999997      6.1349999999999998
   104   1      2.0449999999999999                  10.225      4.0899999999999999
   105   1                       0      8.1799999999999997      8.1799999999999997
   106   1                       0                  10.225                  10.225
   107   1      2.0449999999999999      8.1799999999999997                  10.225
   108   1      2.0449999999999999                  10.225      8.1799999999999997
   109   1                       0      8.1799999999999997                   12.27
   110   1                       0                  10.225                  14.315
   111   1      2.0449999999999999      8.1799999999999997                  14.315
   112   1      2.0449999999999999                  10.225                   12.27
   113   1                       0      8.1799999999999997      16.359999999999999
   114   1                       0                  10.225      18.405000000000001
   115   1      2.0449999999999999      8.1799999999999997      18.405000000000001
   116   1      2.0449999999999999                  10.225      16.359999999999999
   117   1                       0      8.1799999999999997      20.449999999999999
   118   1                       0                  10.225      22.494999999999997
   119   1      2.0449999999999999      8.1799999999999997      22.494999999999997
   120   1      2.0449999999999999                  10.225      20.449999999999999
   121   1                       0      8.1799999999999997      24.539999999999999
   122   1                       0                  10.225      26.585000000000001
   123   1      2.0449999999999999      8.1799999999999997      26.585000000000001
   124   1      2.0449999999999999                  10.225      24.539999999999999
   125   1                       0      8.1799999999999997      28.629999999999999
   126   1                       0                  10.225      30.674999999999997
   127   1      2.0449999999999999      8.1799999999999997      30.674999999999997
   128   1      2.0449999999999999                  10.225      28.629999999999999
   129   1                       0      8.1799999999999997      32.719999999999999
   130   1                       0                  10.225      34.765000000000001
   131   1      2.0449999999999999      8.1799999999999997      34.765000000000001
   132   1      2.0449999999999999                  10.225      32.719999999999999
   133   1                       0      8.1799999999999997      36.810000000000002
   134   1                       0                  10.225      38.855000000000004
   135   1      2.0449999999999999      8.1799999999999997      38.855000000000004
   136   1      2.0449999999999999                  10.225      36.810000000000002
   137   1                       0      8.1799999999999997      40.899999999999999
   138   1                       0                  10.225                  42.945
   139   1      2.0449999999999999      8.1799999999999997                  42.945
   140   1      2.0449999999999999                  10.225      40.899999999999999
   141   1                       0      8.1799999999999997      44.989999999999995
   142   1                       0                  10.225      47.034999999999997
   143   1      2.0449999999999999      8.1799999999999997      47.034999999999997
   144   1      2.0449999999999999                  10.225      44.989999999999995
   145   1                       0                   12.27                       0
   146   1                       0                  14.315      2.0449999999999999
   147   1      2.0449999999999999                   12.27      2.0449999999999999
   148   1      2.0449999999999999                  14.315                       0
   149   1                       0                   12.27      4.0899999999999999
   150   1                       0                  14.315      6.1349999999999998
   151   1      2.0449999999999999                   12.27      6.1349999999999998
   152   1      2.0449999999999999                  14.315      4.0899999999999999
   153   1                       0                   12.27      8.1799999999999997
   154   1                       0                  14.315                  10.225
   155   1      2.0449999999999999                   12.27                  10.225
   156   1      2.0449999999999999                  14.315      8.1799999999999997
   157   1                       0                   12.27                   12.27
   158   1                       0                  14.315                  14.315
   159   1      2.0449999999999999                   12.27                  14.315
   160   1      2.0449999999999999                  14.315                   12.27
   161   1                       0                   12.27      16.359999999999999
   162   1                       0                  14.315      18.405000000000001
   163   1      2.0449999999999999                   12.27      18.405000000000001
   164   1      2.0449999999999999                  14.315      16.359999999999999
   165   1                       0                   12.27      20.449999999999999
   166   1                       0                  14.315      22.494999999999997
   167   1      2.0449999999999999                   12.27      22.494999999999997
   168   1      2.0449999999999999                  14.315      20.449999999999999
   169   1                       0                   12.27      24.539999999999999
   170   1                       0                  14.315      26.585000000000001
   171   1      2.0449999999999999                   12.27      26.585000000000001
   172   1      2.0449999999999999                  14.315      24.539999999999999
   173   1                       0                   12.27      28.629999999999999
   174   1                       0                  14.315      30.674999999999997
   175   1      2.0449999999999999                   12.27      30.674999999999997
   176   1      2.0449999999999999                  14.315      28.629999999999999
   177   1                       0                   12.27      32.719999999999999
   178   1                       0                  14.315      34.765000000000001
   179   1      2.0449999999999999                   12.27      34.765000000000001
   180   1      2.0449999999999999                  14.315      32.719999999999999
   181   1                       0                   12.27      36.810000000000002
   182   1                       0                  14.315      38.855000000000004
   183   1      2.0449999999999999                   12.27      38.855000000000004
   184   1      2.0449999999999999                  14.315      36.810000000000002
   185   1                       0                   12.27      40.899999999999999
   186   1                       0                  14.315                  42.945
   187   1      2.0449999999999999                   12.27                  42.945
   188   1      2.0449999999999999                  14.315      40.899999999999999
   189   1                       0                   12.27      44.989999999999995
   190   1                       0                  14.315      47.034999999999997
   191   1      2.0449999999999999                   12.27      47.034999999999997
   192   1      2.0449999999999999                  14.315      44.989999999999995
   193   1                       0      16.359999999999999                       0
   194   1                       0      18.405000000000001      2.0449999999999999
   195   1      2.0449999999999999      16.359999999999999      2.0449999999999999
   196   1      2.0449999999999999      18.405000000000001                       0
   197   1                       0      16.359999999999999      4.0899999999999999
   198   1                       0      18.405000000000001      6.1349999999999998
   199   1      2.0449999999999999      16.359999999999999      6.1349999999999998
   200   1      2.0449999999999999      18.405000000000001      4.0899999999999999
   201   1                       0      16.359999999999999      8.1799999999999997
   202   1                       0      18.405000000000001                  10.225
   203   1      2.0449999999999999      16.359999999999999                  10.225
   204   1      2.0449999999999999      18.405000000000001      8.1799999999999997
   205   1                       0      16.359999999999999                   12.27
   206   1                       0      18.405000000000001                  14.315
   207   1      2.0449999999999999      16.359999999999999                  14.315
   208   1      2.0449999999999999      18.405000000000001                   12.27
   209   1                       0      16.359999999999999      16.359999999999999
   210   1                       0      18.405000000000001      18.405000000000001
   211   1      2.0449999999999999      16.359999999999999      18.405000000000001
   212   1      2.0449999999999999      18.405000000000001      16.359999999999999
   213   1                       0      16.359999999999999      20.449999999999999
   214   1                       0      18.405000000000001      22.494999999999997
   215   1      2.0449999999999999      16.359999999999999      22.494999999999997
   216   1      2.0449999999999999      18.405000000000001      20.449999999999999
   217   1                       0      16.359999999999999      24.539999999999999
   218   1                       0      18.405000000000001      26.585000000000001
   219   1      2.0449999999999999      16.359999999999999      26.585000000000001
   220   1      2.0449999999999999      18.405000000000001      24.539999999999999
   221   1                       0      16.359999999999999      28.629999999999999
   222   1                       0      18.405000000000001      30.674999999999997
   223   1      2.0449999999999999      16.359999999999999      30.674999999999997
   224   1      2.0449999999999999      18.405000000000001      28.629999999999999
   225   1                       0      16.359999999999999      32.719999999999999
   226   1                       0      18.405000000000001      34.765000000000001
   227   1      2.0449999999999999      16.359999999999999      34.765000000000001
   228   1      2.0449999999999999      18.405000000000001      32.719999999999999
   229   1                       0      16.359999999999999      36.810000000000002
   230   1                       0      18.405000000000001      38.855000000000004
   231   1      2.0449999999999999      16.359999999999999      38.855000000000004
   232   1      2.0449999999999999      18.405000000000001      36.810000000000002
   233   1                       0      16.359999999999999      40.899999999999999
   234   1                       0      18.405000000000001                  42.945
   235   1      2.0449999999999999      16.359999999999999                  42.945
   236   1      2.0449999999999999      18.405000000000001      40.899999999999999
   237   1                       0      16.359999999999999      44.989999999999995
   238   1                       0      18.405000000000001      47.034999999999997
   239   1      2.0449999999999999      16.359999999999999      47.034999999999997
   240   1      2.0449999999999999      18.405000000000001      44.989999999999995
   241   1                       0      20.449999999999999                       0
   242   1                       0      22.494999999999997      2.0449999999999999
   243   1      2.0449999999999999      20.449999999999999      2.0449999999999999
   244   1      2.0449999999999999      22.494999999999997                       0
   245   1                       0      20.449999999999999      4.0899999999999999
   246   1                       0      22.494999999999997      6.1349999999999998
   247   1      2.0449999999999999      20.449999999999999      6.1349999999999998
   248   1      2.0449999999999999      22.494999999999997      4.0899999999999999
   249   1                       0      20.449999999999999      8.1799999999999997
   250   1                       0      22.494999999999997                  10.225
   251   1      2.0449999999999999      20.449999999999999                  10.225
   252   1      2.0449999999999999      22.494999999999997      8.1799999999999997
   253   1                       0      20.449999999999999                   12.27
   254   1                       0      22.494999999999997                  14.315
   255   1      2.0449999999999999      20.449999999999999                  14.315
   256   1      2.0449999999999999      22.494999999999997                   12.27
   257   1                       0      20.449999999999999      16.359999999999999
   258   1                       0      22.494999999999997      18.405000000000001
   259   1      2.0449999999999999      20.449999999999999      18.405000000000001
   260   1      2.0449999999999999      22.494999999999997      16.359999999999999
   261   1                       0      20.449999999999999      20.449999999999999
   262   1                       0      22.494999999999997      22.494999999999997
   263   1      2.0449999999999999      20.449999999999999      22.494999999999997
   264   1      2.0449999999999999      22.494999999999997      20.449999999999999
   265   1                       0      20.449999999999999      24.539999999999999
   266   1                       0      22.494999999999997      26.585000000000001
   267   1      2.0449999999999999      20.449999999999999      26.585000000000001
   268   1      2.0449999999999999      22.494999999999997      24.539999999999999
   269   1                       0      20.449999999999999      28.629999999999999
   270   1                       0      22.494999999999997      30.674999999999997
   271   1      2.0449999999999999      20.449999999999999      30.674999999999997
   272   1      2.0449999999999999      22.494999999999997      28.629999999999999
   273   1                       0      20.449999999999999      32.719999999999999
   274   1                       0      22.494999999999997      34.765000000000001
   275   1      2.0449999999999999      20.449999999999999      34.765000000000001
   276   1      2.0449999999999999      22.494999999999997      32.719999999999999
   277   1                       0      20.449999999999999      36.810000000000002
   278   1                       0      22.494999999999997      38.855000000000004
   279   1      2.0449999999999999      20.449999999999999      38.855000000000004
   280   1      2.0449999999999999      22.494999999999997      36.810000000000002
   281   1                       0      20.449999999999999      40.899999999999999
   282   1                       0      22.494999999999997                  42.945
   283   1      2.0449999999999999      20.449999999999999                  42.945
   284   1      2.0449999999999999      22.494999999999997      40.899999999999999
   285   1                       0      20.449999999999999      44.989999999999995
   286   1                       0      22.494999999999997      47.034999999999997
   287   1      2.0449999999999999      20.449999999999999      47.034999999999997
   288   1      2.0449999999999999      22.494999999999997      44.989999999999995
   289   1                       0      24.539999999999999                       0
   290   1                       0      26.585000000000001      2.0449999999999999
   291   1      2.0449999999999999      24.539999999999999      2.0449999999999999
   292   1      2.0449999999999999      26.585000000000001                       0
   293   1                       0      24.539999999999999      4.0899999999999999
   294   1                       0      26.585000000000001      6.1349999999999998
   295   1      2.0449999999999999      24.539999999999999      6.1349999999999998
   296   1      2.0449999999999999      26.585000000000001      4.0899999999999999
   297   1                       0      24.539999999999999      8.1799999999999997
   298   1                       0      26.585000000000001                  10.225
   299   1      2.0449999999999999      24.539999999999999                  10.225
   300   1      2.0449999999999999      26.585000000000001      8.1799999999999997
   301   1                       0      24.539999999999999                   12.27
   302   1                       0      26.585000000000001                  14.315
   303   1      2.0449999999999999      24.539999999999999                  14.315
   304   1      2.0449999999999999      26.585000000000001                   12.27
   305   1                       0      24.539999999999999      16.359999999999999
   306   1                       0      26.585000000000001      18.405000000000001
   307   1      2.0449999999999999      24.539999999999999      18.405000000000001
   308   1      2.0449999999999999      26.585000000000001      16.359999999999999
   309   1                       0      24.539999999999999      20.449999999999999
   310   1                       0      26.585000000000001      22.494999999999997
   311   1      2.0449999999999999      24.539999999999999      22.494999999999997
   312   1      2.0449999999999999      26.585000000000001      20.449999999999999
   313   1                       0      24.539999999999999      24.539999999999999
   314   1                       0      26.585000000000001      26.585000000000001
   315   1      2.0449999999999999      24.539999999999999      26.585000000000001
   316   1      2.0449999999999999      26.585000000000001      24.539999999999999
   317   1                       0      24.539999999999999      28.629999999999999
   318   1                       0      26.585000000000001      30.674999999999997
   319   1      2.0449999999999999      24.539999999999999      30.674999999999997
   320   1      2.0449999999999999      26.585000000000001      28.629999999999999
   321   1                       0      24.539999999999999      32.719999999999999
   322   1                       0      26.585000000000001      34.765000000000001
   323   1      2.0449999999999999      24.539999999999999      34.765000000000001
   324   1      2.0449999999999999      26.585000000000001      32.719999999999999
   325   1                       0      24.539999999999999      36.810000000000002
   326   1                       0      26.585000000000001      38.855000000000004
   327   1      2.0449999999999999      24.539999999999999      38.855000000000004
   328   1      2.0449999999999999      26.585000000000001      36.810000000000002
   329   1                       0      24.539999999999999      40.899999999999999
   330   1                       0      26.585000000000001                  42.945
   331   1      2.0449999999999999      24.539999999999999                  42.945
   332   1      2.0449999999999999      26.585000000000001      40.899999999999999
   333   1                       0      24.539999999999999      44.989999999999995
   334   1                       0      26.585000000000001      47.034999999999997
   335   1      2.0449999999999999      24.539999999999999      47.034999999999997
   336   1      2.0449999999999999      26.585000000000001      44.989999999999995
   337   1                       0      28.629999999999999                       0
   338   1                       0      30.674999999999997      2.0449999999999999
   339   1      2.0449999999999999      28.629999999999999      2.0449999999999999
   340   1      2.0449999999999999      30.674999999999997                       0
   341   1                       0      28.629999999999999      4.0899999999999999
   342   1                       0      30.674999999999997      6.1349999999999998
   343   1      2.0449999999999999      28.629999999999999      6.1349999999999998
   344   1      2.0449999999999999      30.674999999999997      4.0899999999999999
   345   1                       0      28.629999999999999      8.1799999999999997
   346   1                       0      30.674999999999997                  10.225
   347   1      2.0449999999999999      28.629999999999999                  10.225
   348   1      2.0449999999999999      30.674999999999997      8.1799999999999997
   349   1                       0      28.629999999999999                   12.27
   350   1                       0      30.674999999999997                  14.315
   351   1      2.0449999999999999      28.629999999999999                  14.315
   352   1      2.0449999999999999      30.674999999999997                   12.27
   353   1                       0      28.629999999999999      16.359999999999999
   354   1                       0      30.674999999999997      18.405000000000001
   355   1      2.0449999999999999      28.629999999999999      18.405000000000001
   356   1      2.0449999999999999      30.674999999999997      16.359999999999999
   357   1                       0      28.629999999999999      20.449999999999999
   358   1                       0      30.674999999999997      22.494999999999997
   359   1      2.0449999999999999      28.629999999999999      22.494999999999997