(written by ASE)

4263 atoms
2 atom types

0.0      31.066736431430968  xlo xhi
0.0      31.066736431430968  ylo yhi
0.0      63.730000000000004  zlo zhi

Atoms # atomic

     1   1    0.025019951678745673   -0.072233384404591428      33.486633138178448
     2   1      1.4553652818260669      1.4004426810907968      35.465891156465041
     3   1    0.084441595967559208    0.027659195993396914      37.478678085513437
     4   1      1.4641813965360904      1.4801254428554107      39.387840131295242
     5   1   -0.065872000041517303   0.0015060974562390653      41.411426778655077
     6   1      1.4025222143556082      1.4986285858007307      43.505282091625389
     7   1    -0.03466662844823036  -0.0063570124324198677      45.555179295245949
     8   1      1.4247854517217551      1.4254425587007644      47.553719312396396
     9   1    0.067909330916582272   -0.024145659369785612      49.558092709907719
    10   1      1.3814719405392093      1.4179679029047936       51.63967245653906
    11   1   -0.024732116824521425    0.028090829788410578      53.624614076692637
    12   1      1.3670653627197811      1.4244956772818222      55.578493278058637
    13   1  -0.0097210886921226744   0.0088551470997308285      57.766802620877009
    14   1      1.4253552279003865      1.3779861993821101      59.776473708568567
    15   1  -0.0098786120355796245    -0.10033837057180434      61.729458036851838
    16   1    0.010647581799733697      2.8284163472463018      33.500130952307103
    17   1       1.541551769727229      4.2934722391273095      35.340513647800485
    18   1   0.0031468436329022235      2.7732741129846414       37.44564365574854
    19   1      1.4497177068909852       4.311551484911484      39.462589760221313
    20   1     0.10913388240257429      2.8235897768512719      41.544167037243831
    21   1      1.3879412158324873      4.2467798466508908      43.509102922668831
    22   1  -0.0092962300760530379      2.8811438358429848       45.49680544270182
    23   1      1.4196854210756049      4.2486551390876715      47.516915974834468
    24   1   -0.090294862830274852      2.7698509581472748      49.572402781545961
    25   1      1.4404435679419301       4.171970266531841       51.56366130006468
    26   1   -0.070381163407859021      2.9190017050667891      53.634426489664072
    27   1      1.3927753482358982      4.2360831489287589      55.621103115868564
    28   1    0.072096146415101786      2.8384775892559095      57.670607067241207
    29   1      1.4151783996710354      4.2636564755761528      59.723977579368785
    30   1   -0.041354040461548031      2.8226060037971488      61.717694025624965
    31   1   0.0050452930927362936      5.6546710056819158      33.422091472469894
    32   1      1.2702447971577064      7.0859186731603403      35.356189521456621
    33   1  -0.0011916268804647153      5.6283578087818045      37.412500807121695
    34   1      1.4226019934450522      7.0793963800761137      39.427552959546233
    35   1  -0.0086813309047306646      5.6193177314678522      41.443155274675533
    36   1      1.4514006335474252      7.0479922119753118      43.541587579496124
    37   1    0.024972855341011933       5.628585192366792      45.572974619368367
    38   1      1.3771838578567388      7.1529509557615887      47.507437085208416
    39   1    0.036531269869744962      5.6311783083408944      49.583803791476328
    40   1       1.379438748717374      7.0553246747874221      51.570561699164045
    41   1   -0.012016198180881905      5.7210332455244268      53.678625800150861
    42   1      1.4547135047532009      7.1156669960803196      55.711102412564649
    43   1  -0.0040811592035392957      5.5996482005263948      57.708280573286217
    44   1      1.4372660315059833      6.9908158225638166      59.765151883097879
    45   1   -0.050908390063735487       5.656985138041013      61.682182831160659
    46   1     0.10025474570838827        8.54721613885072      33.386299740135613
    47   1      1.3620811851526848      9.8670880471163525      35.390062708587408
    48   1   0.0058866715674092112      8.5407291400899883      37.351094544735581
    49   1      1.4054423326079197      9.8589599949096485      39.517957666309336
    50   1    0.020751711453130085      8.5515438880661279      41.409512545508953
    51   1      1.3753354491609937      9.9070134804775716      43.442218288546989
    52   1  -0.0025333073739150459      8.5214027850665044      45.495360423042129
    53   1       1.361833211376168      9.8977766795022344      47.540999909720348
    54   1    0.029991698609359609       8.436180526237905      49.650988083672992
    55   1      1.3849235490795866      9.9134111608151603      51.622701834221203
    56   1   -0.014230412660174357      8.4548848318173366       53.67306557883294
    57   1      1.4124822789822764       9.774352589504705      55.671595504263301
    58   1    0.078985243034559727      8.4936839611395225      57.675954840307604
    59   1      1.4004819336920238      9.9390894435586219      59.658762610121975
    60   1    0.025616059299090346      8.5021396230220674      61.766440560232667
    61   1   -0.040763692739603397      11.294625689832342      33.456713543845296
    62   1      1.4275380665997159      12.702107252685165      35.417118143104261
    63   1   -0.032871505877364385      11.353579086648635      37.438611408594348
    64   1      1.3459269241121643      12.756320021326863      39.373899764248002
    65   1   -0.034660623763553708       11.36593632721649      41.445321576697914
    66   1      1.4162760383204551      12.684381313215363      43.584677688162827
    67   1     0.05295205383935269       11.34059730727037        45.5116358032355
    68   1       1.394365331963495      12.727794594381367      47.522405055746624
    69   1   -0.018829298177174922      11.251999358635423      49.511814210306227
    70   1      1.4147013364115382      12.671081613837309      51.583474235456563
    71   1    0.065192004897028685        11.2880354671319      53.626058196757889
    72   1      1.4092179472610651      12.720744248706668      55.705615768225236
    73   1    0.014387940997984917      11.266926459220729      57.640547232695312
    74   1      1.5167924460289322      12.702967062989384      59.626356273927833
    75   1   -0.059056016911343483      11.255746805298324      61.653217004104292
    76   1    -0.02051778362159673      14.040895553732319      33.331645641683707
    77   1      1.3499977214876078        15.4989843188359      35.521820922610864
    78   1   -0.093151653851798133      14.050505004782993      37.375476744747544
    79   1      1.4571916517222681      15.544186046125079      39.463461582288197
    80   1    0.015582551279545311      14.067156600389662      41.470967085479941
    81   1      1.4124002001017972      15.523052543690747      43.510323745917695
    82   1     0.12024879966647983      14.111466586739178      45.517414494007838
    83   1       1.359197911853387      15.583026941668233      47.536255022933368
    84   1   -0.036915811837448957      14.101606647765774      49.547268203671607
    85   1      1.4549073990380088      15.552739775355006      51.718062565905761
    86   1    0.023736521629281221       14.16380062346728      53.604579924376317
    87   1      1.2471962134718635      15.513347478179602       55.67447713522558
    88   1    0.038364260687438839      14.129898939978279      57.660274497758898
    89   1      1.3896067857628576       15.58270534772709      59.728026469090423
    90   1   -0.040559997675386955      14.117512763525385      61.756554854476882
    91   1    0.044580403359440371      16.995782103061604       33.44476261639754
    92   1      1.4416669134811588      18.204381783019453      35.379803182983864
    93   1   -0.028560544602462681      16.948571672000231      37.406883630990833
    94   1      1.3089520865572455      18.369110687820463      39.426909826355619
    95   1    0.041379475441091607      16.924110908094345       41.54231030114947
    96   1      1.3916164670165334       18.33536128735841      43.500571337571252
    97   1    0.029770991291760765      16.913171153838505      45.462526416757541
    98   1      1.4248038974868833      18.252398154875873      47.570531657242974
    99   1    0.050381650253926824      16.998709290771966      49.548974073664766
   100   1      1.3757386323226353      18.341041978168764      51.616682869412365
   101   1    0.024052424736802722      16.921513081418318      53.549115185766418
   102   1       1.482448275275678      18.349044055645489      55.688489232108822
   103   1    0.037927410858830037      16.997683648946836      57.679938218104482
   104   1      1.3887249772100718      18.369842786758166      59.736220495303478
   105   1   -0.036268906231900912      16.888049911324224      61.702353670432707
   106   1     -0.0850236813330532      19.839818909022263      33.316559856629155
   107   1      1.4148306543329296       21.09481652994598       35.39142240310494
   108   1    0.052774724557239694      19.788282593317469      37.534965362673354
   109   1      1.4557323130919699      21.222119843113795       39.46913720247607
   110   1    -0.02378628996618512      19.838195074038296      41.449388233676075
   111   1      1.3955967590633997       21.14239349193419      43.554679592650061
   112   1   -0.017456925531745559      19.687476959197074      45.536785866762465
   113   1      1.4043245057148739      21.184256576065803      47.539059385599955
   114   1   -0.027083915782708214       19.82976439960343      49.546617863579343
   115   1      1.3905857377291491      21.178522056563317      51.580366012204593
   116   1    0.066309589778617381      19.875129862469681      53.529644569270729
   117   1      1.3604301909831922      21.080396485195752      55.559122942423905
   118   1    0.007051394044194477      19.777710058407774      57.636385329315175
   119   1      1.4493599493432276      21.188859480006418      59.767266029534696
   120   1    0.081545315284711317      19.804005285035032      61.680162882518665
   121   1   -0.086170241771513181      22.571902527218487      33.392625259897585
   122   1      1.3658637267073188      24.101174064001629      35.495085840219438
   123   1    0.015160324956779431      22.616088539945245      37.445636483379012
   124   1       1.376413146779174      24.008247872516812       39.34307960389107
   125   1  -0.0029224116459509331      22.624585197181265      41.406270102431534
   126   1      1.4378889345081289      23.992615458539071      43.492831244863709
   127   1   -0.047656105375530021      22.562163848467968      45.504145899364154
   128   1      1.4173284362462895      23.950419392583338      47.675659159833558
   129   1   -0.050716397451880529      22.602820336206971      49.610737605957688
   130   1      1.3549427015800386      24.104820820930282      51.580603943063593
   131   1   -0.053860606198818828      22.595371076729766      53.643103019103535
   132   1      1.4555420795889122       24.01392211637949      55.578059693145846
   133   1    0.061909369937426587      22.623777873643274      57.718502759539291
   134   1      1.4067434296080465      24.023348090380441      59.641498511391426
   135   1   -0.020945000077664661      22.563770390731417      61.708699040873796
   136   1   0.0039515796833614562      25.375035691062024      33.449067493493892
   137   1      1.4106690926234096      26.850657000986246      35.479588439317844
   138   1   -0.088483751775054145      25.474094604139623      37.452187455218862
   139   1      1.2798099032261279      26.872188594240232      39.504341418814903
   140   1   -0.013197459493842052      25.282192385674854       41.41595011357461
   141   1      1.4068152817378505      26.890953639829526      43.462504077488909
   142   1   -0.021177354516076812      25.376355584393579      45.549839878973074
   143   1      1.4128564833083881      26.832149532805602      47.534332414368606
   144   1   -0.062150162724727488       25.42395396689205      49.582233478643325
   145   1      1.4260265879657581      26.801079876645073      51.596007875922496
   146   1     0.06149205915506091      25.376295887219882      53.650059954107078
   147   1      1.4519065765563302      26.856694620376398      55.720053572530979
   148   1    0.087077117506492441      25.393751756956263      57.719631003032539
   149   1      1.4989647757744473      26.851397120665613      59.641143815691798
   150   1   -0.010802979234816561      25.404025943286083      61.829711414796229
   151   1     0.03376970931328549      28.290236322344786      33.448964743049281
   152   1      1.3393135052203222      29.663914069765916      35.466957357283029
   153   1     0.03102793717132345      28.278327842750492      37.444864068108956
   154   1      1.3732616290711153      29.653999779773415      39.472875418202136
   155   1    -0.12727703612823202      28.281023119721301      41.493201931010624
   156   1      1.3751679751430708      29.694913223056307      43.535300475625441
   157   1    0.050283640926369534      28.264476732931232      45.577670672975394
   158   1       1.390466267327426      29.696369163518028      47.587925740749426
   159   1   -0.034250098867295284       28.19538323306687      49.540684188940972
   160   1      1.3580985531452299      29.772960141499144      51.642342556361569
   161   1    0.019871681257601199      28.234246463402503      53.670511185670335
   162   1      1.4598865006113588       29.63084084629925      55.683758527693705
   163   1    -0.01833431000177552      28.287594303840216      57.798446634709258
   164   1      1.4413037335636356      29.678188975965842      59.716725274035461
   165   1    0.034586957647968875      28.278076981831841      61.764784370673631
   166   1      2.9265844482595798   -0.070040831622375177      33.387108558710651
   167   1      4.2968772133233593       1.404440850937589      35.506658577707711
   168   1      2.8354787194210105   -0.042422440048363999      37.368103051719004
   169   1      4.2767476466686078      1.4463707528022287      39.507447764386228
   170   1      2.7888452844193505  -0.0027568299026849066      41.553039314346755
   171   1      4.1687638740577322      1.4215896008043871      43.412509870031478
   172   1      2.7939003351795835     0.09073666034286712      45.531742113294499
   173   1      4.2191953422740269      1.3964495652924618      47.626087650697407
   174   1      2.8069230310962925   -0.026195741883367381      49.636577935570166
   175   1      4.2980447286335979      1.5577390811688621      51.644086276996887
   176   1      2.8683515604254044    0.019885013171015247      53.619630060883601
   177   1      4.2496733717906867      1.3244790599639167      55.631372370564691
   178   1       2.829057805614561   -0.041133833377850842      57.653262628764452
   179   1      4.2256577465030825      1.4071918049136336      59.696692854611634
   180   1      2.8899482590141163   -0.058412221269928156      61.702552763824698
   181   1      2.7990058722564854      2.9116930279574089      33.383466426554236
   182   1      4.2785313086072918      4.2422168772292537      35.466098149831502
   183   1      2.8621538240872701      2.8595704417886045      37.394761700709822
   184   1      4.2305666860659388      4.2448544330084852      39.446246815221109
   185   1      2.9606099253064344      2.7273675129616683      41.532074502724875
   186   1      4.2332788434714832      4.2613710099206559      43.463848109669549
   187   1      2.7456179910058753      2.8761448422956413      45.515023377762908
   188   1      4.2060438674569047      4.3127166864479873      47.616012575854647
   189   1      2.7970111997278471      2.9209958576100612      49.509479294510733
   190   1      4.2849116334821371      4.2331972570849965      51.666521931692678
   191   1       2.777311038578242      2.8959012585712811      53.604831225145418
   192   1      4.3046283517985433      4.1670576664806456      55.712786450297919
   193   1      2.7564888027364765      2.8235451251901935       57.59199488213131
   194   1      4.2004752762562321      4.2877117526445714      59.740528456390592
   195   1      2.8352748684020872      2.8526206825327756      61.711370451605838
   196   1      2.8282922508271957      5.5769925536340565      33.402844323831495
   197   1      4.2407429680164892      6.9970638923963806      35.341638429535202
   198   1      2.8932790582113923      5.6061304346653014      37.388920761574575
   199   1      4.2062971944426133      7.0936413691969546      39.360587178912162
   200   1      2.8357220228689792      5.6275036596314925      41.563216538345955
   201   1      4.3225101325895983      7.1052952104748206      43.416920151949512
   202   1      2.8283898262429545      5.7429489215094449      45.558540679633829
   203   1      4.2713643622053139      7.0771405419289897      47.550958423702198
   204   1      2.7517209369184865      5.7201278511613198      49.542896619205031
   205   1      4.2303640641598053      7.0581534713059844      51.586470368987598
   206   1      2.7373000547955524      5.7279294133170655      53.691678166078674
   207   1      4.2818629579569567      7.0823583765622393      55.613756042773453
   208   1      2.8765911249671596      5.6997981615590856       57.66037514937976
   209   1       4.186721760410566      7.0686243364312711      59.699880200360397
   210   1      2.8875860136794378      5.6577804072781559       61.70618269089185
   211   1      2.8505124219990878      8.5593654720441279      33.399887134265356
   212   1      4.2199036639355816      9.8070191970711527      35.426264791195948
   213   1      2.8546048861924764       8.496449486103133        37.4616797234427
   214   1      4.2759973848408688      9.8277324478104315      39.435626409056653
   215   1      2.8194224054481323      8.5651756746205194      41.472593964876026
   216   1      4.2766940684872621      9.8982031881485106      43.558322401840762
   217   1      2.8163735372885639      8.5146567834495563      45.535202820699382
   218   1      4.2470376331486204      9.9308625180805237      47.502485613350629
   219   1      2.8487376451994639      8.4558822066009434      49.480758473401671
   220   1      4.2468698721425451      9.8219407042736595      51.564687612592685
   221   1      2.8433726355328179      8.4190439589486772      53.653289349037919
   222   1      4.2690158684380117      9.9026248544430118      55.660462688507302
   223   1      2.8055965091520849      8.5070772970892854      57.754135624522114
   224   1      4.2409864434562436      9.9378161330692638      59.703141748329756
   225   1      2.8630545378861227      8.6430645052336619      61.717687111961702
   226   1      2.7956970016040477      11.258685436876227      33.467537058705808
   227   1      4.3298967291841066      12.755069936613213      35.431425714904044
   228   1      2.7762349917775127      11.409303097932799      37.358767131662816
   229   1      4.1932245690448502      12.627593005124618      39.399051834735282
   230   1      2.7813960307537129      11.308733273504776      41.541070202683088
   231   1      4.2397075803938593      12.681999324459184      43.538941104700143
   232   1      2.8338831658176402      11.263087020081485      45.543636491752537
   233   1      4.1558437743964278      12.728686502108875      47.685874930419111
   234   1      2.7868539654523756      11.245461348775587      49.507814748178411
   235   1      4.2218733183440378       12.65110809840349      51.577721896582332
   236   1      2.8309135399407892      11.347979565872837      53.532944742506942
   237   1      4.1825247653702728      12.769510918479678      55.636120604827816
   238   1      2.8210761390464785      11.273548240294094      57.683369346490259
   239   1      4.2651080745005272      12.651944616423714      59.690583766983636
   240   1      2.7797692978683903      11.393851156943091      61.656668483549772
   241   1      2.7830752753172683      14.032385282910436      33.358173315504466
   242   1      4.3312301208894901      15.503222959225758      35.381765918710123
   243   1      2.8345566929316575      14.128937035198428       37.44620584050945
   244   1      4.2169159071529752      15.570377237019178      39.414601037618986
   245   1      2.8802188303061516      14.235110780454795      41.475342948713148
   246   1      4.2891564314197215      15.501454632927741      43.486683918917436
   247   1      2.7584677084530465      14.037794413860247      45.536593971603864
   248   1      4.2467945548350654      15.585776572166678      47.586943851743705
   249   1      2.7741702559861814      14.148675816143086      49.518135657150154
   250   1      4.1912062809136463      15.515729794210925      51.584940596488195
   251   1      2.8272734875224792      14.187358320945405      53.644116864563109
   252   1      4.2025432267845151      15.549228613508259      55.729755107397963
   253   1      2.8634487501273176       14.10219158080451        57.6770066978846
   254   1      4.3006675730905055      15.531921494563385      59.732526074117928
   255   1      2.9298964909747851      14.071145699582118      61.728469352492731
   256   1      2.7848217432010465      17.029653128971617      33.337285315093681
   257   1      4.1913130099159535       18.27540678850173       35.45690264137388
   258   1        2.82643705532506      16.918643854271103      37.399505168063833
   259   1      4.2529333232553865      18.315967662521583      39.429120894538265
   260   1      2.7760895634802032      16.890711554887748      41.462842145154625
   261   1      4.3158590492608528      18.400011352116259      43.568411215502216
   262   1      2.8494966344809436      16.938924086569394       45.52981159448526
   263   1      4.2451836699582204      18.359026296054122      47.402769232369067
   264   1      2.9138299529563825       16.96920768871831      49.629806465126357
   265   1       4.287532079157673      18.336779793467961      51.493786508222101
   266   1      2.8958085491676453      16.873170764801952      53.587286057226692
   267   1      4.1920228805756024      18.434258453978327      55.612988003389397
   268   1      2.8614123457164347      16.962083873113514       57.66448545839377
   269   1      4.2094772695901952      18.325245677064466      59.723939598309002
   270   1      2.7979358298743549      17.036527516354258      61.772527024167381
   271   1      2.8353170111903663      19.742239484497762       33.48974210433142
   272   1      4.2427507589752711      21.210047735707427      35.377070472062655
   273   1       2.877038133387245      19.778487380624803      37.385483871877852
   274   1       4.164543803489912      21.224318221213053      39.503494919947912
   275   1      2.8807233172931697      19.704738436391111      41.542670336624866
   276   1      4.2594512232951374      21.203370733101259      43.536136914226468
   277   1      2.8027073350113878      19.666708447355042      45.506210781277453
   278   1      4.3238271935462214      21.212468478101115      47.554696629753053
   279   1      2.7283962971285032      19.710798878468356      49.523955091775051
   280   1      4.1858864048359363      21.187701567525618      51.632563745894615
   281   1      2.8025680625368659       19.71822924217636      53.645346668808941
   282   1      4.2059244804715572      21.182303984021711      55.685804579070648
   283   1      2.8750026237820347      19.828796146414515      57.614343806296674
   284   1      4.2117935153961161      21.094723287098624      59.601606800886223
   285   1      2.7865806525900587      19.750379333708544      61.691047637831858
   286   1      3.0139773829302912      22.596178224619322      33.466782356201371
   287   1      4.2778586146562656      23.912139959841568      35.448216513208884
   288   1      2.9279627496330596      22.555946163140263      37.407819642583277
   289   1      4.2600230208848346      24.009323659124224      39.473847977126916
   290   1      2.7877296023844949       22.57743260953881      41.449772105144064
   291   1      4.2053556605997349      23.967802548709109      43.539379417655212
   292   1      2.8880788995288533      22.537485066966539      45.569894572326128
   293   1       4.198443633902599      23.945726724538812       47.55997093123549
   294   1       2.881605875377677      22.564264954242759      49.609803219408967
   295   1      4.3174487914105741      24.102362369143528      51.496851775365528
   296   1      2.8474916709835885      22.572348222703916      53.586772344229765
   297   1       4.247387926705632      23.956087475987889      55.674874782864528
   298   1      2.8907190410982722      22.605565109569856      57.643430630037237
   299   1      4.2161092737541876      24.026157789852711      59.774557331703505
   300   1        2.84020656338304      22.499887578496381      61.733241190301904
   301   1      2.8299817453034972      25.356343030046364      33.446303971434418
   302   1      4.2891075216167645       26.78618344837621      35.328621672456876
   303   1      2.7175486285579864      25.410496146547718      37.493346849943016
   304   1      4.2865350586804087      26.874209143078737      39.458954349474041
   305   1      2.8927170643103439      25.458804847730732      41.501071789746788
   306   1      4.2427844432335595      26.754936479160104      43.536158178764445
   307   1      2.7886430465034002      25.422345523117016      45.598844081781579
   308   1      4.2431121011803503      26.826306910682518      47.601142019923408
   309   1      2.8086625431425967      25.442611315582166      49.558847901899725
   310   1      4.1847383699935357      26.786537754543186      51.562147932058053
   311   1       2.745109960150057      25.385336862654409      53.602400101713684
   312   1      4.2175710373837276      26.804933407778925      55.610328220159055
   313   1      2.7741894055577623      25.466550871342807      57.728227952220251
   314   1       4.234195309330099      26.892302166682342      59.718501827699086
   315   1      2.8247847463122566      25.464959430484512      61.645466012135124
   316   1      2.8090619652431488      28.275411758102589      33.287668444962279
   317   1      4.1996156932638193      29.589840430874556      35.430779870129562
   318   1      2.7713460481092578      28.189209935391915      37.374776714776999
   319   1      4.2494523069611496      29.713983031931686      39.468518396422581
   320   1      2.8176889177308171      28.268574436663091      41.431746844385167
   321   1      4.3371444764462064      29.618209813633879      43.531030555971533
   322   1      2.8822795663611207      28.232245329122819       45.55525590730084
   323   1       4.162720907105717      29.593739682429501      47.626768273400842
   324   1      2.8287778604186489      28.255348464765348      49.563680867470872
   325   1      4.2366370556401414      29.705143181077069      51.627106939715432
   326   1      2.7709075312414639      28.252518303476862      53.613394263568097
   327   1      4.2770364743763931      29.681520331344888      55.710667232213304
   328   1      2.8097446090210751      28.147692270523702      57.714644026229934
   329   1      4.3093949104287175      29.719627330056923      59.649351490577573
   330   1      2.8213639189187649      28.183238899295375      61.749943310587952
   331   1      5.6064564397522325     0.12510821049666107      33.384563616643554
   332   1      6.9565992785972099      1.4170545387255162      35.350462019041579
   333   1      5.5598432886775493     0.06204554717670635       37.42089431555641
   334   1      7.1131843961862442      1.3986538700192845      39.451342311319777
   335   1      5.6992375777852686   -0.061568547605426231      41.504602097680824
   336   1      7.1218870874624809      1.4099360852192491      43.523529311338507
   337   1       5.609295974510407   -0.053459150330132481      45.547970410377481
   338   1       7.168482388557182      1.4463078364360338      47.564288465320409
   339   1      5.6170540969241856   -0.035596533487387047      49.625821627111954
   340   1      7.0516343537819024      1.4089947399934255      51.678372742844175
   341   1      5.7046900590070164    0.063222192233204591      53.604586634655831
   342   1      7.0435026389855722      1.4545095781971551      55.609846723773423
   343   1      5.6661997092114689   -0.025506018789907305      57.698318254616559
   344   1      6.9763134845002392      1.4153312090360171      59.664917136108706
   345   1      5.6401819491451919   -0.012160641293389889      61.805207512620953
   346   1      5.6246868767360212      2.8398860827180754      33.361179543351483
   347   1      7.1154189386393183      4.2355060827406472      35.400217032428465
   348   1      5.6703426819063942      2.8690037883173987      37.469736642292609
   349   1      7.0535205357445898      4.2532879061880324      39.432817080149348
   350   1      5.7022345783925941      2.8003962036094863      41.469564637892695
   351   1      7.0769129783104683      4.2284329340602813      43.526862860156363
   352   1       5.654291602608815       2.801181823300706      45.412370426204461
   353   1      7.1132072609504533      4.2119836608012005      47.627159906291908
   354   1      5.6350775100870942      2.7796439614060118      49.587566278330648
   355   1      7.0300958236769446      4.3018055663283397      51.579330931072697
   356   1      5.6820584710700235      2.7840882291867568      53.599893472372486
   357   1      7.0203083904203796      4.3495405210170306      55.636133285498602
   358   1      5.6015414671189179      2.8314984137593333      57.678401812268909
   359   1      7.0548276470390876      4.2950869444568252      59.775046230767288