LAMMPS (10 Dec 2025)
OMP_NUM_THREADS environment is not set. Defaulting to 1 thread.
  using 1 OpenMP thread(s) per MPI task
units metal
boundary p p s
atom_style atomic
timestep 0.002
read_data data.interface
Reading data file ...
  orthogonal box = (0 0 0) to (31.066736 31.066736 63.73)
  1 by 1 by 4 MPI processor grid
  reading atoms ...
  4263 atoms
  read_data CPU = 0.016 seconds

pair_style eam/alloy
pair_coeff * * /mnt/c/Users/iwash/Documents/Repositories/Lammps/potentials/AlCu.eam.alloy Al Cu
Reading eam/alloy potential file /mnt/c/Users/iwash/Documents/Repositories/Lammps/potentials/AlCu.eam.alloy with DATE: 2008-10-01

neighbor 2.0 bin
neigh_modify delay 10 check yes

thermo 100
thermo_style custom step temp pe press pxx pyy lx ly lz

print '=== Phase 0: Shake (High-T limit) ==='
=== Phase 0: Shake (High-T limit) ===
velocity all create 1000.0 43034 dist gaussian
fix shake all nve/limit 0.1
run 1000
Neighbor list info ...
  update: every = 1 steps, delay = 10 steps, check = yes
  max neighbors/atom: 2000, page size: 100000
  master list distance cutoff = 8.6825
  ghost atom cutoff = 8.6825
  binsize = 4.34125, bins = 8 8 14
  1 neighbor lists, perpetual/occasional/extra = 1 0 0
  (1) pair eam/alloy, perpetual
      attributes: half, newton on
      pair build: half/bin/atomonly/newton
      stencil: half/bin/3d
      bin: standard
Per MPI rank memory allocation (min/avg/max) = 3.495 | 3.722 | 3.954 Mbytes
   Step          Temp          PotEng         Press           Pxx            Pyy             Lx             Ly             Lz      
         0   1000          -14433.067      7374.4192      6643.4131      6219.8875      31.066736      31.066736      60.00564     
       100   611.7665      -14219.462      17127.452      16559.199      17182.312      31.066736      31.066736      61.816706    
       200   594.40135     -14209.742      9539.3246      10385.538      10589.79       31.066736      31.066736      62.225641    
       300   587.8298      -14205.907      3844.8428      4791.102       5449.292       31.066736      31.066736      62.798177    
       400   591.26834     -14207.592     -219.77904      317.49875      1685.7057      31.066736      31.066736      62.973982    
       500   573.6132      -14197.729     -9129.8402     -6901.4828     -7465.8178      31.066736      31.066736      63.451267    
       600   553.72572     -14186.703     -17396.123     -15051.186     -14921.953      31.066736      31.066736      64.10014     
       700   533.73526     -14175.616     -17165.147     -14981.427     -14119.995      31.066736      31.066736      64.201296    
       800   561.46223     -14190.934     -11111.603     -9538.5061     -9402.306       31.066736      31.066736      64.37861     
       900   575.284       -14198.738     -1558.5329     -1035.3765     -437.51123      31.066736      31
MPI task timing breakdown:
Section |  min time  |  avg time  |  max time  |%varavg| %total
---------------------------------------------------------------
Pair    | 1.7245     | 2.0277     | 2.3258     |  19.1 | 82.13
Neigh   | 0.028064   | 0.046729   | 0.064389   |   6.5 |  1.89
Comm    | 0.063427   | 0.36374    | 0.63775    |  44.6 | 14.73
Output  | 0.00029394 | 0.00037291 | 0.00057715 |   0.0 |  0.02
Modify  | 0.0056329  | 0.0062404  | 0.0070518  |   0.8 |  0.25
Other   |            | 0.02402    |            |       |  0.97

Nlocal:        1065.75 ave        1296 max         879 min
Histogram: 2 0 0 0 0 0 0 1 0 1
Nghost:         3590.5 ave        4475 max        2448 min
Histogram: 1 0 0 0 0 1 0 1 0 1
Neighs:        97210.8 ave      140651 max       57337 min
Histogram: 1 1 0 0 0 0 0 1 0 1

Total # of neighbors = 388843
Ave neighs/atom = 91.213465
Neighbor list builds = 28
Dangerous builds = 0
=== Phase 1: 0K Relaxation ===
Switching to 'neigh_modify every 1 delay 0 check yes' setting during minimization
Setting up cg style minimization ...
  Unit style    : metal
  Current step  : 1000
WARNING: Energy due to 3 extra global DOFs will be included in minimizer energies
 (src/min.cpp:222)
Per MPI rank memory allocation (min/avg/max) = 4.62 | 4.848 unfix shake
velocity all set 0 0 0

# x,y方向の箱寸法 + 原子位置を同時最適化（z方向はshrink-wrap）
print '=== Phase 1: 0K Relaxation ==='
=== Phase 1: 0K Relaxation ===
fix relax all box/relax x 0.0 y 0.0 vmax 0.001
minimize 1.0e-8 1.0e-10 10000 100000
Switching to 'neigh_modify every 1 delay 0 check yes' setting during minimization
WARNING: Energy due to 3 extra global DOFs will be included in minimizer energies
 (src/min.cpp:222)
Per MPI rank memory allocation (min/avg/max) = 4.62 | 4.848 | 5.079 Mbytes
   Step          Temp          PotEng         Press           Pxx            Pyy             Lx             Ly             Lz      
      1000   0             -14208.927     -618.49475     -845.98618     -15.863143      31.066736      31.066736      62.660435    
      1100 Loop time of 1.39094 on 4 procs for 378 steps with 4263 atoms

104.7% CPU use with 4 MPI tasks x 1 OpenMP threads

Minimization stats:
  Stopping criterion = linesearch alpha is zero
  Energy initial, next-to-last, final = 
     -14208.9269565525  -14489.4479096814  -14489.4479096814
  Force two-norm initial, final = 67.093488 14.828309
  Force max component initial, final = 32.066269 8.8349968
  Final line search alpha, max atom move = 3.3265576e-11 2.9390126e-10
  Iterations, force evaluations = 378 463

MPI task timing breakdown:
Section |  min time  |  avg time  |  max time  |%varavg| %total
---------------------------------------------------------------
Pair    | 1.3346     | 1.3348     | 1.3351     |   0.0 | 95.97
Neigh   | 0          | 0          | 0          |   0.0 |  0.00
Comm    | 0.017257   | 0.017732   | 0.018586   |   0.4 |  1.27
Output  | 6.6029e-05 | 8.4927e-05 | 0.00013956 |   0.0 |  0.01
Modify  | 0          | 0          | 0          |   0.0 |  0.00
Other   |            | 0.03828    |            |       |  2.75

Nlocal:        1065.75 ave        1296 max         882 min
Histogram: 2 0 0 0 0 0 0 1 0 1
Nghost:        3583.25 ave        4466 max        2442 min
Histogram: 1 0 0 0 0 1 0 1 0 1
Neighs:        97377.2 ave      140463 max       57957 min
Histogram: 1 1 0 0 0 0 0 0 1 1

Total # of neighbors = 389509
Ave neighs/atom = 91.369693
Neighbor list builds = 0
Dangerous builds = 0
=== Phase 2: Annealing at 600.0K for 10.0ps ===
Setting up Verlet run ...
  Unit style    : metal
  Current step  : 0
  Time step     : 0.002
Per MPI rank memory allocation (min/avg/max) = 3.495 | 3.723 | 3.954 Mbytes
   Step          Temp          PotEng         Press           Pxx            Pyy             Lx             Ly             Lz      
         0   600           -14489.448      4039.897       6225.2749      6202.2551      30.610497      30.644595      62.405034    
       100   388.27888     -14316.4unfix relax

# 界面近傍の原子配置を緩和（ミスフィット軽減）
print '=== Phase 2: Annealing at 600.0K for 10.0ps ==='
=== Phase 2: Annealing at 600.0K for 10.0ps ===
reset_timestep 0
velocity all create 600.0 43034 dist gaussian
fix ann all npt temp 600.0 600.0 0.1 x 0.0 0.0 1.0 y 0.0 0.0 1.0
run 5000
Per MPI rank memory allocation (min/avg/max) = 3.495 | 3.723 | 3.954 Mbytes
   Step          Temp          PotEng         Press           Pxx            Pyy             Lx             Ly             Lz      
         0   600           -14489.448      4039.897       6225.2749      6202.2551      30.610497      30.644595      62.405034    
       100   388.27888     -14316.487     -5586.0759     -5530.0959     -4981.6835      30.994144      31.01974       62.777174    
       200   468.00976     -14265.343      769.99695      1027.2503      1382.9001      30.983591      30.996509      62.837733    
       300   559.64186     -14217.051      265.46641      113.22452      963.28846      31.074777      31.066217      62.85901     
       400   610.26785     -14176.926     -346.76945     -647.85484     -937.53322      31.158222      31.200135      63.021948    
       500   609.71043     -14170.923      472.734       -598.89164      747.12871      31.193512      31.209352      63.206907    
       600   580.38839     -14186.765      592.7516       677.00415     -405.26034      31.179068      31.237729      62.790642    
       700   599.45197     -14180.989      1604.0104      311.96892      2348.4913      31.238284      31.22432       62.810429    
       800   619.79549     -14174.18      -1502.24       -1026.5664     -2653.1057      31.245613      31.268864      63.368667    
       900   594.94782     -14187.361      732.06889      279.24698      728.17575      31.180143      31.143944      63.450411    
      1000   598.86849     -14194.587      218.25939      329.04118     -230.21377      31.127434      31.152878      63.4477      
      1100   597.93854     -14172.789     -945.39428     -817.44667     -1350.6251      31.169956      31.179741      63.889698    
      1200   607.03636     -14180.661      287.28618      276.90677      1367.1791      31.171816      31.144923      64.522783    
      1300   597.95353     -14188.683      89.016818      1490.9772     -1208.3477      31.130157      31.198785      64.528456    
      1400   608.36901     -14179.798     -1152.3887     -2890.0941      202.02433      31.237527      31.173568      63.901115    
      1500   600.48128     -14164.731      1699.0813      2866.1036      458.68862      31.146148      31.231413      63.272661    
      1600   591.79965     -14177.552     -209.32302     -1643.3692      1150.7444      31.181829      31.152897      63.834857    
      1700   588.25775     -14185.222     -416.09298      78.004169     -901.00936      31.093726      31.149406      63.692508    
      1800   614.60664     -14183.574      943.84058      1588.2843      639.0402       31.083332      31.115526      63.284932    
      1900   594.97754     -14173.578     -1650.9988     -1887.2459     -1632.6767      31.191281      31.14103       63.387766    
      2000   600.16024     -14191.049      896.52451      1314.1546      1015.3033      31.088705      31.119125      63.334494    
      2100   601.25793     -14183.481      359.95642      538.28718     -228.03817      31.092      2700   597.84189     -14186.584     -677.87053      397.11493     -1607.087       31.072025      31.165836      65.059803    
      2800   599.27851     -14183.916      682.74567      323.61187      374.96294      31.121294      31.133831      64.394443    
      2900   595.55736     -14168.561      0.024493281    57.152159     -332.49198      31.159425      31.147924      63.747235    
      3000   597.12457     -14174.444     -62.259057     -561.82935      202.00959      31.104504      31.153302      64.057469    
      3100   593.79982     -14180.843      475.96974      1605.8908      51.942374      31.06082       31.140508      64.264092    
      3200   606.56757     -14179.63        2700   597.84189     -14186.584     -677.87053      397.11493     -1607.087       31.072025      31.165836      65.059803    
      2800   599.27851     -14183.916      682.74567      323.61187      374.96294      31.121294      31.133831      64.394443    
      2900   595.55736     -14168.561      0.024493281    57.152159     -332.49198      31.159425      31.147924      63.747235    
      3000   597.12457     -14174.444     -62.259057     -561.82935      202.00959      31.104504      31.153302      64.057469    
      3100   593.79982     -14180.843      475.96974      1605.8908      51.942374      31.06082       31.140508      64.264092    
      3200   606.56757     -14179.63      -851.74824     -1943.9948      377.44701      31.149691      31.087767      63.61929     
      3300   597.7093      -14179.791      782.87066      1199.2208      351.48954      31.080838      31.116059      64.734211    
      3400   592.5935      -14184.518      638.20006      1027.3332      1068.9766      31.080391      31.097891      65.088916    
      3500   593.13851     -14176.917     -433.9561      -326.38645     -102.45723      31.130173      31.135707      64.565526    
      3600   592.74218     -14171.578      1630.9151      2680.5518      449.55984      31.083962      31.174427      64.158995    
      3700   598.06817     -14176.744     -1161.3857     -2254.3487     -366.23647      31.194356      31.165647      64.447332    
      3800   610.39799     -14194.103     -11.054087      839.82446     -1003.7143      31.074464      31.182011      64.293475    
      3900   593.87119     -14186.62      -180.5699       299.49148      127.50869      31.068832      31.157072      64.57278     
      4000   602.20815     -14181.658     -790.72282     -1963.855       596.91248      31.156025      31.103552      64.347796    
      4100   609.04283     -14188.226      1560.3092      3036.8902      742.09666      31.017031      31.180788      64.342764    
      4200   590.81058     -14187.361     -1160.8546     -919.78769     -1219.6445      31.096823      31.195734      63.214546    
      4300   603.94331     -14186.402      142.8182      -1411.1737      1291.5979      31.18156       31.136486      62.980304    
      4400   602.69869     -14176.292      561.32116      1322.4054     -298.97642      31.114475      31.213734      63.781107    
      4500   605.40241     -14179.836     -827.90824     -1579.0648     -1392.9328      31.133531      31.243662      63.389152    
      4600   598.44833     -14178.975      1869.3792      2097.0086      1103.9251      31.079945      31.209902      63.125562    
      4700   601.71717     -14182.043     -989.69446     -1926.1058     -507.59026      31.152835      31.180933      63.091423    
      4800   605.22564     -14186.804      1315.9671 Pair    | 8.3474     | 10.38      | 12.256     |  56.2 | 78.56
Neigh   | 0.13664    | 0.26234    | 0.37746    |  19.7 |  1.99
Comm    | 0.33906    | 2.2526     | 4.1608     | 121.3 | 17.05
Output  | 0.0011553  | 0.0015178  | 0.0025533  |   1.5 |  0.01
Modify  | 0.18074    | 0.27802    | 0.52331    |  26.9 |  2.10
Other   |            | 0.03889    |            |       |  0.29

Nlocal:        1065.75 ave        1296 max         845 min
Histogram: 2 0 0 0 0 0 0 0 0 2
Nghost:        3636.25 ave        4625 max        2378 min
Histogram: 1 0 0 0 1 0 0 1 0 1
Neighs:        96728.8 ave      139385 max       53584 min
Histogram: 1 1 0 0 0 0 0 0 1 1

Total # of neighbors = 386915
Ave neighs/atom = 90.761201
Neighbor list builds = 157
Dangerous builds = 0
=== Phase 2b: Cooling 600.0K -> 300.0K ===
Setting up Verlet run ...
  Unit style    : metal
  Current step  : 5000
  Time step     : 0.002
Per MPI rank memory allocation (min/avg/max) = 3.495 | 3.723 | 3.954 Mbytes
   Step          Temp          PotEng         Press           Pxx            Pyy             Lx             Ly             Lz      
      5000   590.23072     -14188.224      370.62284     -905.1415       1021.1801      31.094675      31.131261      64.12665     
      5100   593.96325     -14179.754      915.00895      946.81874      44.464694      31.04825       31.204924      64.048272    
      5200   605.60463     -14190.211     -289.56566     -116.45505     -420.93727    unfix ann

print '=== Phase 2b: Cooling 600.0K -> 300.0K ==='
=== Phase 2b: Cooling 600.0K -> 300.0K ===
fix cool all npt temp 600.0 300.0 0.1 x 0.0 0.0 1.0 y 0.0 0.0 1.0
run 5000
Per MPI rank memory allocation (min/avg/max) = 3.495 | 3.723 | 3.954 Mbytes
   Step          Temp          PotEng         Press           Pxx            Pyy             Lx             Ly             Lz      
      5000   590.23072     -14188.224      370.62284     -905.1415       1021.1801      31.094675      31.131261      64.12665     
      5100   593.96325     -14179.754      915.00895      946.81874      44.464694      31.04825       31.204924      64.048272    
      5200   605.60463     -14190.211     -289.56566     -116.45505     -420.93727      31.058856      31.162672      64.125927    
      5300   589.76464     -14193.023     -1100.4699     -1672.4369     -312.56534      31.054864      31.125781      64.580133    
      5400   573.66753     -14193.997      265.65297      1780.0684      106.01376      30.947276      31.129991      64.197089    
      5500   576.59728     -14206.635     -1089.8631     -1243.5253      425.27337      30.998338      31.048524      64.386482    
      5600   572.69404     -14205.808     -556.47543      622.99228     -321.79497      30.95312       31.093377      63.828889    
      5700   562.84135     -14212.552     -190.77299      42.611059      351.14131      30.995897      31.037103      63.960941    
      5800   552.18875     -14214.528     -1308.5293     -2139.1621     -62.929276      31.015544      31.068886      64.524021    
      5900   552.25543     -14217.232      1320.6108      3688.8113     -484.73673      30.89914       31.146505      64.162364    
      6000   522.84177     -14218.595     -920.25919     -3117.4824      1545.2094      31.097733      31.061677      64.130529    
      6100   531.76357     -14227.649      924.20782      2140.7184     -425.03406      30.954193      31.143061      63.811718    
      6200   535.68167     -14237.342      442.97863      753.40163      646.01995      30.976709      31.110046      63.877414    
      6300   508.31668     -14236.055     -1628.3312     -2062.7515     -1031.2835      31.039427      31.136027      64.098221    
      6400   525.77423     -14243.743      2433.014       3421.1806      1332.6566      30.957615      31.124412      63.660831    
      6500   507.11166     -14245.504      176.5221      -896.6916       524.40776      31.063629      31.13996       63.159305    
      6600   502.34659     -14250.531     -677.24474     -516.52346     -1752.6188      31.039386      31.196407      63.518247    
      6700   495.02353     -14256.733      426.9963      -369.63307      887.49778      31.046579      31.151709      63.481954    
      6800   482.87598     -14261.693      1821.6663      2422.3666      1132.7831      31.014817      31.170219      63.732305    
      6900   502.32263     -14264.397     -1250.3009     -1891.3221     -978.67386      31.081157      31.157673      63.657491    
      7000   495.5057      -14271.541     -581.97875     -917.39606     -1205.0629      31.044717      31.160446      63.53426     
      7100   472.98993     -14270.173      504.99493      533.99381      110.66385      31.00981       31.1683        63.384443    
      7200   471.58666     -14278.814     -650.58653        7800   438.97534     -14302.704      1096.4472      1359.2641      1270.1253      30.946351      31.067515      63.505866    
      7900   426.06825     -14303.155     -1776.8317     -2002.2608     -1492.1802      30.997279      31.100927      62.8587      
      8000   422.47988     -14303.991      1466.6003      2639.3928      797.69003      30.901866      31.087635      63.116185    
      8100   419.84564     -14308.026     -740.84194     -1950.5497      455.69764      31.021588      31.051353      63.345462    
      8200   417.43154     -14316.168     -651.09855     -294.28339     -790.6086       30.95372       31.093407      63.703827    
      8300   410.50583     -14319.583      830.43418      1663.8996      120.61871      30 438.97534     -14302.704      1096.4472      1359.2641      1270.1253      30.946351      31.067515      63.505866    
      7900   426.06825     -14303.155     -1776.8317     -2002.2608     -1492.1802      30.997279      31.100927      62.8587      
      8000   422.47988     -14303.991      1466.6003      2639.3928      797.69003      30.901866      31.087635      63.116185    
      8100   419.84564     -14308.026     -740.84194     -1950.5497      455.69764      31.021588      31.051353      63.345462    
      8200   417.43154     -14316.168     -651.09855     -294.28339     -790.6086       30.95372       31.093407      63.703827    
      8300   410.50583     -14319.583      830.43418      1663.8996      120.61871      30.909743      31.078265      63.285354    
      8400   399.55541     -14322.274     -1310.3125     -2296.1752     -209.01226      30.981267      31.047483      62.79001     
      8500   397.41316     -14328.779      419.9286       1388.2082     -176.35288      30.891573      31.054106      63.53519     
      8600   381.20363     -14326.731     -508.85928     -920.03499      283.10277      30.960386      31.054077      63.400815    
      8700   384.01867     -14335.809      122.32074      547.13492     -760.86732      30.906611      31.109424      62.998095    
      8800   370.48284     -14333.854      1025.0432      588.60225      1777.4981      30.949361      31.049009      63.385597    
      8900   361.53899     -14336.544     -350.15184     -626.11722     -301.79403      30.950841      31.090733      63.2283      
      9000   360.46349     -14343.356      671.15545      1244.7193      51.186368      30.90378       31.08385       63.025771    
      9100   357.26978     -14348.388      541.05856     -735.39462      1768.7749      30.96448       31.017974      62.791855    
      9200   352.74843     -14353.391     -1182.4391      105.40255     -2782.6128      30.906001      31.116844      62.953983    
      9300   347.07743     -14358.048      371.13508     -656.68209      1454.3556      30.960877      30.999641      62.95864     
      9400   339.71653     -14359.5        392.02555      1169.9894     -580.1139       30.913032      31.065195      63.220221    
      9500   325.2495      -14358.634     -376.00075     -481.95715     -414.17459      30.950548      31.08329       62.578556    
      9600   331.31896     -14368.792      1736.1916      1046.5261      2406.8316      30.932629      31.001777      62.672232    
      9700   317.82882     -14368.128     -1909.5216     -1101.9801     -3109.2663      30.916963      31.105592      63.098407    
      9800   316.62338     -14375.948      1182.9861     -51.188282      2543.2157      30.930855      30.967453      62.960838    
      9900   305.72051     -14375.859     -153.36315      1604.1802   Output  | 0.0011235  | 0.0014627  | 0.0024411  |   1.5 |  0.01
Modify  | 0.17394    | 0.23633    | 0.38404    |  17.6 |  1.86
Other   |            | 0.03764    |            |       |  0.30

Nlocal:        1065.75 ave        1296 max         847 min
Histogram: 2 0 0 0 0 0 0 0 0 2
Nghost:        3660.75 ave        4656 max        2408 min
Histogram: 1 0 0 0 1 0 0 1 0 1
Neighs:          98575 ave      141734 max       54978 min
Histogram: 1 1 0 0 0 0 0 0 1 1

Total # of neighbors = 394300
Ave neighs/atom = 92.493549
Neighbor list builds = 124
Dangerous builds = 0
=== Phase 3: Define Grips ===
432 atoms in group bottom
242 atoms in group top
3589 atoms in group mobile
Bottom grip: 432 atoms
Top grip:    242 atoms
Mobile:      3589 atoms
=== Phase 4: Equilibration with Grips ===
Setting up Verlet run ...
  Unit style    : metal
  Current step  : 0
  Time step     : 0.002
Per MPI rank memory allocation (min/avg/max) = 3.495 | 3.723 | 3.954 Mbytes
   Step          Temp          PotEng         Press           Pxx            Pyy             Lx             Ly             Lz      
         0   257.5054      -14383.831     -1629.9436     -2480.0062     -651.3368       30.949278      31.009281      62.885647    
       100   275.14276     -14371.256     -803.50416     -174.22639     -1835.4643    unfix cool

# 焼きなまし後の座標を基準にグリップ領域を定義
print '=== Phase 3: Define Grips ==='
=== Phase 3: Define Grips ===
variable zmin equal bound(all,zmin)
variable zmax equal bound(all,zmax)
variable grip_thick equal 5.0
variable zlo_grip equal ${zmin}+${grip_thick}
variable zlo_grip equal 1.6285695984719+${grip_thick}
variable zlo_grip equal 1.6285695984719+5
variable zhi_grip equal ${zmax}-${grip_thick}
variable zhi_grip equal 64.5014706919102-${grip_thick}
variable zhi_grip equal 64.5014706919102-5

region rgn_bot block INF INF INF INF INF ${zlo_grip}
region rgn_bot block INF INF INF INF INF 6.6285695984719
region rgn_top block INF INF INF INF ${zhi_grip} INF
region rgn_top block INF INF INF INF 59.5014706919102 INF
group bottom region rgn_bot
432 atoms in group bottom
group top region rgn_top
242 atoms in group top
group mobile subtract all bottom top
3589 atoms in group mobile

print 'Bottom grip: $(count(bottom)) atoms'
Bottom grip: 432 atoms
print 'Top grip:    $(count(top)) atoms'
Top grip:    242 atoms
print 'Mobile:      $(count(mobile)) atoms'
Mobile:      3589 atoms

print '=== Phase 4: Equilibration with Grips ==='
=== Phase 4: Equilibration with Grips ===
reset_timestep 0
velocity bottom set 0.0 0.0 0.0
velocity top set 0.0 0.0 0.0
# グリップ: nve（時間積分）+ setforce 0（力ゼロ）→ 等速運動
fix nve_bot bottom nve
fix nve_top top nve
fix freeze_bot bottom setforce 0.0 0.0 0.0
fix freeze_top top setforce 0.0 0.0 0.0
fix eq mobile npt temp 300.0 300.0 0.1 x 0.0 0.0 1.0 y 0.0 0.0 1.0
run 5000
Per MPI rank memory allocation (min/avg/max) = 3.495 | 3.723 | 3.954 Mbytes
   Step          Temp          PotEng         Press           Pxx            Pyy             Lx             Ly             Lz      
         0   257.5054      -14383.831     -1629.9436     -2480.0062     -651.3368       30.949278      31.009281      62.885647    
       100   275.14276     -14371.256     -803.50416     -174.22639     -1835.4643      30.893353      31.0      1700   300.77099     -14359.484      1111.4596     -98.27685       2288.552       30.974489      31.018567      62.885647    
      1800   298.40916     -14358.518      445.1267       1523.3679     -607.90031      30.918709      31.093046      62.885647    
      1900   292.86842     -14352.28       6.4656567     -124.77551     -129.35204      30.953793      31.081092      62.885647    
      2000   301.40947     -14354.367     -207.75009     -1009.2702     -307.13071      30.973759      31.067173      62.885647    
      2100   301.56351     -14361.227     -529.08892      244.18594     -1409.0409      30.917065      31.101545      62.885647    
      2200   304.35339     -14357.218      186.79863     -1648.6928      1231.085       30.990726      31.005283      62.885647    
      2300   298.08386     -14353.001      753.2083       1422.3513     -213.67044      30.911613      31.081381      62.885647    
      2400   296.16546     -14354.194      463.91262      15.381051      695.06255      30.959604      31.039925      62.885647    
      2500   295.92318     -14358.254     -118.02244     -1012.1352      163.11099      30.955035      31.056718      62.885647    
      2600   300.52298     -14358.824     -309.77978     -103.09362     -667.99806      30.941071      31.073719      62.885647    
      2700   297.49808     -14353.772      112.71821     -157.28383      159.873        30.959271      31.061785      62.885647    
      2800   299.83129     -14357.946      144.79373      372.38325     -272.88906      30.941534      31.077985      62.885647    
      2900   299.77794     -14359.816      297.47255      557.63256      321.94043      30.932683      31.084569      62.885647    
      3000   302.90077     -14356.778     -194.91767     -919.72227      342.30747      30.995441      31.036067      62.885647    
      3100   300.57467     -14355.365     -528.13406      512.81485     -1929.6272      30.93497       31.111775      62.885647    
      3200   297.99752     -14360.513     -569.79715     -1554.0293     -80.909269      305       2288.552       30.974489      31.018567      62.885647    
      1800   298.40916     -14358.518      445.1267       1523.3679     -607.90031      30.918709      31.093046      62.885647    
      1900   292.86842     -14352.28       6.4656567     -124.77551     -129.35204      30.953793      31.081092      62.885647    
      2000   301.40947     -14354.367     -207.75009     -1009.2702     -307.13071      30.973759      31.067173      62.885647    
      2100   301.56351     -14361.227     -529.08892      244.18594     -1409.0409      30.917065      31.101545      62.885647    
      2200   304.35339     -14357.218      186.79863     -1648.6928      1231.085       30.990726      31.005283      62.885647    
      2300   298.08386     -14353.001      753.2083       1422.3513     -213.67044      30.911613      31.081381      62.885647    
      2400   296.16546     -14354.194      463.91262      15.381051      695.06255      30.959604      31.039925      62.885647    
      2500   295.92318     -14358.254     -118.02244     -1012.1352      163.11099      30.955035      31.056718      62.885647    
      2600   300.52298     -14358.824     -309.77978     -103.09362     -667.99806      30.941071      31.073719      62.885647    
      2700   297.49808     -14353.772      112.71821     -157.28383      159.873        30.959271      31.061785      62.885647    
      2800   299.83129     -14357.946      144.79373      372.38325     -272.88906      30.941534      31.077985      62.885647    
      2900   299.77794     -14359.816      297.47255      557.63256      321.94043      30.932683      31.084569      62.885647    
      3000   302.90077     -14356.778     -194.91767     -919.72227      342.30747      30.995441      31.036067      62.885647    
      3100   300.57467     -14355.365     -528.13406      512.81485     -1929.6272      30.93497       31.111775      62.885647    
      3200   297.99752     -14360.513     -569.79715     -1554.0293     -80.909269      30.969315      31.0      4800   305.22756     -14353.381      623.51747      2737.8808     -1788.1116      30.883355      31.119764      62.885647    
      4900   303.35753     -14358.732      513.55461     -618.39072      1766.078       30.979006      31.009126      62.885647    
      5000   296.34497     -14356.747      659.17985      834.2161      -28.377536      30.925911      31.058709      62.885647    
Loop time of 13.1327 on 4 procs for 5000 steps with 4263 atoms

Performance: 65.790 ns/day, 0.365 hours/ns, 380.729 timesteps/s, 1.623 Matom-step/s
104.5% CPU use with 4 MPI tasks x 1 OpenMP threads

MPI task timing breakdown:
Section |  min time  |  avg time  |  max time  |%varavg| %total
---------------------------------------------------------------
Pair    | 8.3856     | 10.359     | 12.251     |  56.1 | 78.88
Neigh   | 0.062084   | 0.121      | 0.17368    |  13.8 |  0.92
Comm    | 0.45591    | 2.3217     | 4.1619     | 117.2 | 17.68
Output  | 0.0011273  | 0.0015477  | 0.0027639  |   1.8 |  0.01
Modify  | 0.20985    | 0.28676    | 0.47147    |  20.0 |  2.18
Other   |            | 0.04316    |            |       |  0.33

Nlocal:        1065.75 ave        1296 max         847 min
Histogram: 2 0 0 0 0 0 0 0 0 2
Nghost:        3656.25 ave        4660 max        2407 min
Histogram: 1 0 0 0 1 0 0 1 0 1
Neighs:          98363 ave      141406 max       54977 min
Histogram: 1 1 0 0 0 0 0 0 1 1

Total # of neighbors = 393452
Ave neighs/atom = 92.294628
Neighbor list builds = 71
Dangerous builds = 0
=== Phase 5: Tensile Test ===
Initial grip distance L0 = 57.9899654584373 Ang
Pull velocity = 0.115979930916875 Ang/ps (erate=0.002/ps)
Setting up Verlet run ...
  Unit style    : metal
  Current step  : 0
  Time step     : 0.002
Per MPI rank memory allocation (min/avg/max) = 4.995 | 5.223 | 5.454 Mbytes
   Step          Temp         v_strain     v_stress_zz        Pxx            Pyy             Lx             Ly           v_Lmat    
         0   296.35323     -6.1264283e-16 -0.12708812     834.2161      -28.377536      30.925911      31.058709      57.989965    
       100   275.77486      0.0004         0.13529701    -871.36035     -1793.8579      30.925911      31.058709      58.013161    
       200   254.51192      0.0008         0.27511117    -2243.1763     -2835.7179      30.925911      31.058709      58.036357    
       300   249.5038       0.0012         0.3733476     -2567.3625     -3517.1649      30.925911      31.058709      58.059553    
       400   256.8277       0.0016         0.40247366    -2734.3174     -2764.357       30.925911      31.058709      58.082749    
       500   256.32389      0.002          0.38718209    -3221.0001     -4005.1452      30.925911      31.058709      58.105945    
       600   253.41586      0.0024         0.46864289    -3808.1388     -4182.7812      30.925911      31.058709      58.129141    
       700   253.88281      0.0028         0.50455516    -4094.3812     -4281.6448      30.925911      31.058709      58.152337    
       800   257.02594      0.0032         0.58676856    -4153.9335     -5085.9554      30.925911      31.058709      58.175533    
       900   257.10836      0.0036         0.71837041    -4951.9388     -5812.7273      30.925911      31.058709      58.198729    
      1000   256.4345       0.004          0.65903593    -5300.049      -5481.7876      30.925911      31.058709      58.221925    
      1100   254.99019      0.0044         0.71532363    -5172.9177     -5658.9366      30.925911      31.058709   unfix eq

print '=== Phase 5: Tensile Test ==='
=== Phase 5: Tensile Test ===
reset_timestep 0

# グリップ重心間距離で初期材料長を定義
variable zcm_bot equal xcm(bottom,z)
variable zcm_top equal xcm(top,z)
variable tmp_L equal v_zcm_top-v_zcm_bot
variable L0 equal ${tmp_L}
variable L0 equal 57.9899654584373
print 'Initial grip distance L0 = ${L0} Ang'
Initial grip distance L0 = 57.9899654584373 Ang

# 引っ張り速度 = erate × L0
variable vpull equal 0.002*v_L0
velocity top set 0.0 0.0 ${vpull}
velocity top set 0.0 0.      1600   250.34844      0.0064         0.83506646    -6661.0229     -6992.1593      30.925911      31.058709      58.361101    
      1700   251.62784      0.0068         0.88850495    -6670.1877     -6607.9932      30.925911      31.058709      58.384297    
      1800   253.05296      0.0072         0.91376459    -6943.2205     -6849.04        30.925911      31.058709      58.407493    
      1900   252.49146      0.0076         0.93636966    -7010.7908     -7393.7191      30.925911      31.058709      58.430689    
      2000   246.4443       0.008          1.0687754     -8144.5378     -8223.2604      30.925911      31.058709      58.453885    
      2100   257.19277      0.0084         1.1176688     -8420.28       -8573.7346      30.925911      31.058709      58.477081    
      2200   251.24558      0.0088         1.1167474     -8662.544      -8376.9162      30.925911      31.058709      58.500277    
      2300   250.49431      0.0092         1.1610231     -8189.8399     -9410.0609      30.925911      31.058709      58.523473    
      2400   259.6551       0.0096         1.1778873     -8931.7718     -9228.7029      30.925911      31.058709      58.546669    
      2500   248.38343      0.01           1.195647      -9270.6289     -9122.6583      30.925911      31.058709      58.569865    
      2600   249.14505      0.0104         1.192528      -9142.8816     -9454.8162      30.925911      31.058709      58.593061    
      2700   253.50562      0.0108         1.1923975     -9599.3772     -9175.6203      30.925911      31.058709      58.616257    
      2800   254.16762      0.0112         1.1883344     -9883.6072     -9819.7619      30.925911      31.058709      58.639453    
      2900   251.02031      0.0116         1.2994069     -9010.5086     -9834.4255      30.925911      31.058709      58.662649    
      3000   251.15415      0.012          1.4059093     -9812.0047     -10222.419      30.925911      31.058709      58.685845    
      3100   257.28117      0.0124         1.4153987     -9911.822      -10680.522      30.925911      31.058709      58.709041    
      3200   250.85725      0.0128         1.5016681     -10438.707     -11324.299      30.925911      31.058709      58.732237    
      3300   250.79065      0.0132         1.5521715     -11215.958     -11716.696      30.925911      31.058709      58.755433    
      3400   254.50832      0.0136         1.5756848     -11129.39      -11722.953      30.925911      31.058709      58.778629    
      3500   250.49263      0.014          1.6224848     -11656.295     -11929.526      30.925911      31.058709      58.801825    
      3600   250.2264       0.0144         1.6939695     -12064.502     -12525.105      30.925911      31.058709      58.825021    
      3700   250.40307      0.0148         1.6779552     -11650.826     -12700.373      30.925911      31.058709      58.848217    
      3800   253.65876      0.0152         1.6344171     -11989.193     -12167.602      30.925911      31.058709      58.871413    
      3900   248.50272      0.0156         1.6966594     -11770.122     -12617.901      30.925911      31.058709      58.894609    
      4000   244.02736      0.016          1.7671023     -12927.435     -13206.032      30.925911      31.058709      58.917805    
      4100   254.00388      0.0164         1.738805      -12630.993     -12706.459      30.925911      31.058709      58.941001    
      4200   254.41641      0.0168         1.756623      -12817.634     -12899.681      30.925911      31.058709      5.83506646    -6661.0229     -6992.1593      30.925911      31.058709      58.361101    
      1700   251.62784      0.0068         0.88850495    -6670.1877     -6607.9932      30.925911      31.058709      58.384297    
      1800   253.05296      0.0072         0.91376459    -6943.2205     -6849.04        30.925911      31.058709      58.407493    
      1900   252.49146      0.0076         0.93636966    -7010.7908     -7393.7191      30.925911      31.058709      58.430689    
      2000   246.4443       0.008          1.0687754           4700   252.87878      0.0188         1.994328      -13994.749     -14196.619      30.925911      31.058709      59.080177    
      4800   254.18512      0.0192         2.0715533     -14653.121     -15032.967      30.925911      31.058709      59.103373    
      4900   248.57814      0.0196         2.0776589     -14917.27      -15002.501      30.925911      31.058709      59.126569    
      5000   258.30738      0.02           2.042746      -14429.615     -15001.849      30.925911      31.058709      59.149765    
      5100   256.06117      0.0204         2.0908579     -14982.336     -15506.629      30.925911      31.058709      59.172961    
      5200   248.65867      0.0208         2.1239898     -15319.461     -15182.386      30.925911      31.058709      59.196157    
      5300   256.5195       0.0212         2.1249561     -15788.171     -15613.18       30.925911      31.058709      59.219353    
      5400   258.54914      0.0216         2.1889374     -15577.631     -15889.682      30.925911      31.058709      59.242549    
      5500   248.67585      0.022          2.200289      -16045.333     -16961.413      30.925911      31.058709      59.265745    
      5600   252.73655      0.0224         2.2381384     -16234.583     -16908.234      30.925911      31.058709      59.288941    
      5700   255.12678      0.0228         2.3042208     -16943.285     -16820.977      30.925911      31.058709      59.312137    
      5800   251.93984      0.0232         2.3779142     -17063.062     -17608.182      30.925911      31.058709      59.335333    
      5900   254.90087      0.0236         2.3937989     -16671.777     -17250.843      30.925911      31.058709      59.358529    
      6000   256.10508      0.024          2.5089494     -17756.594     -18323.123      30.925911      31.058709      59.381725    
      6100   253.86258      0.0244         2.4928138     -17696.28      -17946.933      30.925911      31.058709      59.404921    
      6200   255.18219      0.0248         2.451033      -17372.065     -17458.171      30.925911      31.058709      59.428117    
      6300   255.82569      0.0252         2.5228695     -17742.468     -17988.085      30.925911      31.058709      59.451313    
      6400   249.40574      0.0256         2.5515971     -17872.839     -18703.27       30.925911      31.058709      59.474509    
      6500   258.67189      0.026          2.5946033     -18273.608     -18795.371      30.925911      31.058709      59.497705    
      6600   255.93205      0.0264         2.4713129     -18454.806     -18466.877      30.925911      31.058709      59.520901    
      6700   249.88992      0.0268         2.5383239     -19197.42      -18918.329      30.925911      31.058709      59.544097    
      6800   254.83193      0.0272         2.624263      -18956.193     -19459.566      30.925911      31.058709      59.567293    
      6900   251.96221      0.0276         2.6393902     -19016.898     -19025.005      30.925911      31.058709      59.590489    
      7000   250.43659      0.028          2.6993917     -19575.97      -20067.757      30.925911      31.058709      59.613684    
      7100   256.04727      0.0284         2.7967211     -20031.605     -20599.607      30.925911      31.058709      59.63688     
      7200   262.47547      0.0288         2.7772833     -20431.369     -20168.199      30.925911      31.058709      59.660076    
      7300   250.10937      0.0292         2.8260786     -20413.526     -20948.005      30.925911      31.058709      59.68328      -13994.749     -14196.619      30.925911      31.058709      59.080177    
      4800   254.18512      0.0192         2.0715533     -14653.121     -15032.967      30.925911      31.058709      59.103373    
      4900   248.57814      0.0196         2.0776589     -14917.27      -15002.501      30.925911      31.058709      59.126569    
      5000   258.30738      0.02           2.042746      -14429.615     -15001.849      30.925911      31.058709      59.149765    
      5100   256.06117      0.0204         2.0908579           7800   257.62753      0.0312         2.917245      -21169.88      -21125.079      30.925911      31.058709      59.799252    
      7900   252.2474       0.0316         2.9340322     -21443.67      -21641.344      30.925911      31.058709      59.822448    
      8000   250.81459      0.032          2.9996923     -21746.69      -21855.265      30.925911      31.058709      59.845644    
      8100   256.0145       0.0324         3.0143897     -22189.138     -22106.424      30.925911      31.058709      59.86884     
      8200   253.54839      0.0328         3.096129      -22489.516     -22366.271      30.925911      31.058709      59.892036    
      8300   247.09077      0.0332         3.113481      -22902.786     -23293.234      30.925911      31.058709      59.915232    
      8400   254.43249      0.0336         3.0912947     -22955.209     -22629.327      30.925911      31.058709      59.938428    
      8500   247.71355      0.034          3.1114393     -22454.832     -23597.398      30.925911      31.058709      59.961624    
      8600   254.36269      0.0344         3.3363313     -23718.916     -23733.745      30.925911      31.058709      59.98482     
      8700   252.32475      0.0348         3.219469      -23265.242     -23415.031      30.925911      31.058709      60.008016    
      8800   256.86673      0.0352         3.2012582     -23325.077     -23484.301      30.925911      31.058709      60.031212    
      8900   251.13256      0.0356         3.2385136     -23421.804     -23799.152      30.925911      31.058709      60.054408    
      9000   249.3031       0.036          3.3525794     -24072.253     -23626.261      30.925911      31.058709      60.077604    
      9100   257.55896      0.0364         3.307463      -23655.66      -24100.939      30.925911      31.058709      60.1008      
      9200   253.85861      0.0368         3.3538878     -23737.128     -24264.852      30.925911      31.058709      60.123996    
      9300   256.84242      0.0372         3.41945       -24786.837     -25089.128      30.925911      31.058709      60.147192    
      9400   253.87859      0.0376         3.4289406     -24547.133     -25422.838      30.925911      31.058709      60.170388    
      9500   257.241        0.038          3.4303664     -24935.082     -24815.794      30.925911      31.058709      60.193584    
      9600   254.76971      0.0384         3.55458       -25604.993     -25566.361      30.925911      31.058709      60.21678     
      9700   247.74238      0.0388         3.486682      -24937.931     -25499.715      30.925911      31.058709      60.239976    
      9800   260.61191      0.0392         3.521847      -25280.658     -25774.313      30.925911      31.058709      60.263172    
      9900   251.57689      0.0396         3.5839232     -25844.516     -26225.585      30.925911      31.058709      60.286368    
     10000   250.64952      0.04           3.5557427     -25375.486     -25580.339      30.925911      31.058709      60.309564    
     10100   256.10486      0.0404         3.5395971     -25759.91      -25504.6        30.925911      31.058709      60.33276     
     10200   246.34761      0.0408         3.5216888     -26148.277     -26495.055      30.925911      31.058709      60.355956    
     10300   256.16049      0.0412         3.565183      -26475.206     -26528.188      30.925911      31.058709      60.379152    
     10400   255.26443      0.0416         3.5706949     -26345.216     -26470.888      30.925911      31.058709      60.402348     -21169.88      -21125.079      30.925911      31.058709      59.799252    
      7900   252.2474       0.0316         2.9340322     -21443.67      -21641.344      30.925911      31.058709      59.822448    
      8000   250.81459      0.032          2.9996923     -21746.69      -21855.265      30.925911      31.058709      59.845644    
      8100   256.0145       0.0324         3.0143897     -22189.138     -22106.424      30.925911      31.058709      59.86884     
      8200   253.54839      0.0328         3.096129           10900   252.37751      0.0436         3.8125562     -28300.626     -28185.262      30.925911      31.058709      60.518328    
     11000   246.47605      0.044          3.7732263     -27221.508     -27927.629      30.925911      31.058709      60.541524    
     11100   257.30134      0.0444         3.8695815     -28449.532     -28780.567      30.925911      31.058709      60.56472     
     11200   252.90751      0.0448         3.8842617     -28595.781     -28431.759      30.925911      31.058709      60.587916    
     11300   253.00659      0.0452         3.8637308     -28100.802     -28225.515      30.925911      31.058709      60.611112    
     11400   249.17338      0.0456         3.9604294     -28753.5       -28596.3        30.925911      31.058709      60.634308    
     11500   248.29871      0.046          3.9133326     -28388.129     -28347.675      30.925911      31.058709      60.657504    
     11600   251.15243      0.0464         3.9518507     -28467.169     -29032.679      30.925911      31.058709      60.6807      
     11700   254.49176      0.0468         3.986079      -28402.066     -29264.027      30.925911      31.058709      60.703896    
     11800   252.99344      0.0472         3.9631513     -29414.861     -29753.616      30.925911      31.058709      60.727092    
     11900   253.74041      0.0476         4.0279331     -29525.611     -30143.125      30.925911      31.058709      60.750288    
     12000   254.31721      0.048          4.0277273     -29323.148     -29586.157      30.925911      31.058709      60.773484    
     12100   246.58104      0.0484         4.0600092     -30265.935     -30440.008      30.925911      31.058709      60.79668     
     12200   254.49367      0.0488         4.1077295     -30401.527     -30415.217      30.925911      31.058709      60.819876    
     12300   260.98312      0.0492         4.1929065     -30034.864     -30841.906      30.925911      31.058709      60.843072    
     12400   249.55574      0.0496         4.2049768     -31126.458     -30924.813      30.925911      31.058709      60.866268    
     12500   253.41263      0.05           4.2302547     -30660.154     -30750.362      30.925911      31.058709      60.889464    
     12600   253.34231      0.0504         4.2057312     -31222.378     -30822.346      30.925911      31.058709      60.91266     
     12700   260.0889       0.0508         4.1702879     -31042.057     -30511.304      30.925911      31.058709      60.935856    
     12800   252.05552      0.0512         4.1946426     -31383.901     -30684.309      30.925911      31.058709      60.959052    
     12900   250.59491      0.0516         4.1685345     -31710.999     -30610.526      30.925911      31.058709      60.982248    
     13000   256.93643      0.052          4.1243068     -31411.264     -30457.108      30.925911      31.058709      61.005444    
     13100   248.71756      0.0524         4.164767      -32353.292     -31033.413      30.925911      31.058709      61.02864     
     13200   255.58913      0.0528         4.2483479     -32435.91      -31116.917      30.925911      31.058709      61.051836    
     13300   257.74039      0.0532         4.1521184     -32525.585     -30746.024      30.925911      31.058709      61.075032    
     13400   254.74262      0.0536         4.2427262     -33252.488     -31652.945      30.925911      31.058709      61.098228    
     13500   244.4196       0.054          4.256         -33271.19      -31551.818      30.925911      31.058709      61.121424     -28300.626     -28185.262      30.925911      31.058709      60.518328    
     11000   246.47605      0.044          3.7732263     -27221.508     -27927.629      30.925911      31.058709      60.541524    
     11100   257.30134      0.0444         3.8695815     -28449.532     -28780.567      30.925911      31.058709      60.56472     
     11200   252.90751      0.0448         3.8842617     -28595.781     -28431.759      30.925911      31.058709      60.587916    
     11300   253.00659      0.0452         3.8637308          14000   253.49381      0.056          4.2650469     -35090.467     -31963.721      30.925911      31.058709      61.237404    
     14100   252.64751      0.0564         4.3182932     -35541.291     -32458.801      30.925911      31.058709      61.2606      
     14200   255.08234      0.0568         4.2968954     -35155.123     -32034.871      30.925911      31.058709      61.283795    
     14300   251.39452      0.0572         4.3137837     -35562.68      -31939.585      30.925911      31.058709      61.306991    
     14400   250.05052      0.0576         4.4136411     -35799.537     -32585.776      30.925911      31.058709      61.330187    
     14500   252.91198      0.058          4.4111096     -36264.577     -32569.424      30.925911      31.058709      61.353383    
     14600   253.66121      0.0584         4.396827      -35962.205     -32153.419      30.925911      31.058709      61.376579    
     14700   252.83354      0.0588         4.5227703     -37186.747     -33316.753      30.925911      31.058709      61.399775    
     14800   249.0064       0.0592         4.4145801     -37221.114     -33096.812      30.925911      31.058709      61.422971    
     14900   248.93889      0.0596         4.4378908     -37520.05      -32853.647      30.925911      31.058709      61.446167    
     15000   251.17082      0.06           4.5480312     -38454.944     -33797.597      30.925911      31.058709      61.469363    
     15100   247.82441      0.0604         4.4990995     -38058.412     -33168.532      30.925911      31.058709      61.492559    
     15200   254.38654      0.0608         4.5133945     -38105.155     -33274.992      30.925911      31.058709      61.515755    
     15300   255.99547      0.0612         4.562355      -37872.109     -33639.719      30.925911      31.058709      61.538951    
     15400   247.23986      0.0616         4.5387271     -37984.204     -33393.884      30.925911      31.058709      61.562147    
     15500   251.99713      0.062          4.6001554     -38463.282     -33447.644      30.925911      31.058709      61.585343    
     15600   254.66741      0.0624         4.5212999     -38000.627     -33633.911      30.925911      31.058709      61.608539    
     15700   253.39352      0.0628         4.6131682     -39103.762     -33915.989      30.925911      31.058709      61.631735    
     15800   247.64161      0.0632         4.7590745     -39611.957     -35097.481      30.925911      31.058709      61.654931    
     15900   244.83647      0.0636         4.6914174     -39107.642     -34943.212      30.925911      31.058709      61.678127    
     16000   247.56946      0.064          4.7101201     -38757.059     -34240.867      30.925911      31.058709      61.701323    
     16100   253.82371      0.0644         4.7593227     -38970.029     -35140.658      30.925911      31.058709      61.724519    
     16200   248.51376      0.0648         4.8908727     -40210.196     -35804.2        30.925911      31.058709      61.747715    
     16300   241.58152      0.0652         4.898846      -40201.346     -35897.009      30.925911      31.058709      61.770911    
     16400   252.07383      0.0656         4.904164      -39804.491     -35556.347      30.925911      31.058709      61.794107    
     16500   252.77656      0.066          4.8458617     -39792.463     -35914.262      30.925911      31.058709      61.817303    
     16600   248.32937      0.0664         4.9543674     -40613.271     -35830.286      30.925911      31.058709      61.840499    
   090.467     -31963.721      30.925911      31.058709      61.237404    
     14100   252.64751      0.0564         4.3182932     -35541.291     -32458.801      30.925911      31.058709      61.2606      
     14200   255.08234      0.0568         4.2968954     -35155.123     -32034.871      30.925911      31.058709      61.283795    
     14300   251.39452      0.0572         4.3137837     -35562.68      -31939.585      30.925911      31.058709      61.306991    
     14400   250.05052      0.0576         4.4136411          17100   250.34664      0.0684         4.9449071     -40312.244     -35875.467      30.925911      31.058709      61.956479    
     17200   251.1237       0.0688         5.0671777     -41470.917     -36707.901      30.925911      31.058709      61.979675    
     17300   253.92751      0.0692         5.0264042     -40444.679     -36447.569      30.925911      31.058709      62.002871    
     17400   251.12367      0.0696         5.0586757     -40751.285     -37123.698      30.925911      31.058709      62.026067    
     17500   249.3328       0.07           5.1115259     -41678.979     -37408.23       30.925911      31.058709      62.049263    
     17600   252.46019      0.0704         5.1229148     -41248.695     -37765.908      30.925911      31.058709      62.072459    
     17700   259.51776      0.0708         5.2049626     -42007.19      -37515.321      30.925911      31.058709      62.095655    
     17800   256.89889      0.0712         5.2488094     -42503.331     -38218.463      30.925911      31.058709      62.118851    
     17900   254.18663      0.0716         5.2079854     -41720.356     -37678.658      30.925911      31.058709      62.142047    
     18000   255.83265      0.072          5.2046993     -42497.081     -37765.02       30.925911      31.058709      62.165243    
     18100   247.80395      0.0724         5.218473      -42294.802     -38269.471      30.925911      31.058709      62.188439    
     18200   253.68298      0.0728         5.2083287     -41583.641     -37878.581      30.925911      31.058709      62.211635    
     18300   256.78497      0.0732         5.1860469     -41816.699     -37935.427      30.925911      31.058709      62.234831    
     18400   248.95032      0.0736         5.2034768     -41830.68      -37909.885      30.925911      31.058709      62.258027    
     18500   255.15151      0.074          5.1678716     -41754.28      -38079.479      30.925911      31.058709      62.281223    
     18600   252.42971      0.0744         5.215207      -41846.926     -37559.847      30.925911      31.058709      62.304419    
     18700   251.08198      0.0748         5.2571425     -41912.69      -37696.939      30.925911      31.058709      62.327615    
     18800   260.34997      0.0752         5.2177331     -41776.679     -37092.786      30.925911      31.058709      62.350811    
     18900   248.10671      0.0756         5.1457209     -41360.038     -37417.515      30.925911      31.058709      62.374007    
     19000   253.58608      0.076          5.1210404     -41531.633     -37688.942      30.925911      31.058709      62.397203    
     19100   256.57598      0.0764         5.0853694     -41153.971     -36820.674      30.925911      31.058709      62.420399    
     19200   255.36738      0.0768         5.0868841     -41071.143     -36781.426      30.925911      31.058709      62.443595    
     19300   252.00985      0.0772         5.0135741     -40538.366     -35737.958      30.925911      31.058709      62.466791    
     19400   254.22549      0.0776         4.9398097     -39877.129     -35626.908      30.925911      31.058709      62.489987    
     19500   261.24087      0.078          4.7322526     -38511.32      -33633.393      30.925911      31.058709      62.513183    
     19600   249.8136       0.0784         4.5857282     -37295.539     -33101.603      30.925911      31.058709      62.536379    
     19700   250.59382      0.0788         4.5083999     -36641.778     -32532.189      30.925911      31.058709      62.559575    
     19244     -35875.467      30.925911      31.058709      61.956479    
     17200   251.1237       0.0688         5.0671777     -41470.917     -36707.901      30.925911      31.058709      61.979675    
     17300   253.92751      0.0692         5.0264042     -40444.679     -36447.569      30.925911      31.058709      62.002871    
     17400   251.12367      0.0696         5.0586757     -40751.285     -37123.698      30.925911      31.058709      62.026067    
     17500   249.3328       0.07           5.1115259          20200   255.79326      0.0808         3.5001801     -29359.054     -26383.112      30.925911      31.058709      62.675555    
     20300   253.92642      0.0812         3.0114026     -26283.203     -22722.789      30.925911      31.058709      62.698751    
     20400   248.56142      0.0816         2.6956458     -23967.677     -21185.57       30.925911      31.058709      62.721947    
     20500   256.19835      0.082          2.4850697     -22995.275     -19912.703      30.925911      31.058709      62.745143    
     20600   248.40902      0.0824         2.1818096     -20991.868     -18196.518      30.925911      31.058709      62.768339    
     20700   256.22927      0.0828         2.0309441     -18987.414     -16664.565      30.925911      31.058709      62.791535    
     20800   249.81149      0.0832         1.9337507     -18579.086     -16695.757      30.925911      31.058709      62.814731    
     20900   253.33083      0.0836         1.8766642     -18653.197     -16488.715      30.925911      31.058709      62.837927    
     21000   257.22935      0.084          1.7013599     -17223.508     -15544.812      30.925911      31.058709      62.861123    
     21100   251.09502      0.0844         1.5650872     -16431.189     -14611.539      30.925911      31.058709      62.884319    
     21200   247.7754       0.0848         1.5453342     -15863.263     -13700.329      30.925911      31.058709      62.907515    
     21300   250.24145      0.0852         1.5026798     -15477.26      -13665.014      30.925911      31.058709      62.930711    
     21400   252.18271      0.0856         1.4068171     -14661.412     -12522.41       30.925911      31.058709      62.953907    
     21500   251.86483      0.086          1.4844664     -14736.092     -12773.175      30.925911      31.058709      62.977102    
     21600   251.50398      0.0864         1.5815901     -14935.252     -13817.133      30.925911      31.058709      63.000298    
     21700   252.74917      0.0868         1.5286772     -14491.764     -12706.421      30.925911      31.058709      63.023494    
     21800   253.12069      0.0872         1.571856      -14507.384     -12779.919      30.925911      31.058709      63.04669     
     21900   248.74232      0.0876         1.6676299     -15247.062     -13631.633      30.925911      31.058709      63.069886    
     22000   251.95136      0.088          1.6726778     -15096.867     -13673.406      30.925911      31.058709      63.093082    
     22100   257.70742      0.0884         1.5746893     -13756.713     -12797.225      30.925911      31.058709      63.116278    
     22200   256.08712      0.0888         1.5900734     -13414.091     -12066.516      30.925911      31.058709      63.139474    
     22300   251.3208       0.0892         1.4805668     -13280.621     -12605.885      30.925911      31.058709      63.16267     
     22400   252.40615      0.0896         1.4122742     -12552.33      -11611.768      30.925911      31.058709      63.185866    
     22500   246.80018      0.09           1.6099631     -13923.697     -12309.093      30.925911      31.058709      63.209062    
     22600   253.77844      0.0904         1.5564657     -13500.929     -12126.59       30.925911      31.058709      63.232258    
     22700   253.36805      0.0908         1.5798225     -13575.948     -12573.596      30.925911      31.058709      63.255454    
     22800   239.75029      0.0912         1.7610172     -14409.106     -13357.853      30.925911      31.058709      63.27865     
     22900     -26383.112      30.925911      31.058709      62.675555    
     20300   253.92642      0.0812         3.0114026     -26283.203     -22722.789      30.925911      31.058709      62.698751    
     20400   248.56142      0.0816         2.6956458     -23967.677     -21185.57       30.925911      31.058709      62.721947    
     20500   256.19835      0.082          2.4850697     -22995.275     -19912.703      30.925911      31.058709      62.745143    
     20600   248.40902      0.0824         2.1818096          23300   254.75767      0.0932         1.7173573     -14534.163     -12665.652      30.925911      31.058709      63.39463     
     23400   251.23877      0.0936         1.6970047     -14930.001     -12744.25       30.925911      31.058709      63.417826    
     23500   256.77964      0.094          1.6487833     -14386.298     -12476.974      30.925911      31.058709      63.441022    
     23600   245.05594      0.0944         1.6412399     -15162.189     -12932.932      30.925911      31.058709      63.464218    
     23700   254.58996      0.0948         1.7458324     -15652.52      -12445.68       30.925911      31.058709      63.487414    
     23800   254.02582      0.0952         1.7009836     -14492.766     -12702.84       30.925911      31.058709      63.51061     
     23900   251.13552      0.0956         1.7915822     -15765.507     -13487.882      30.925911      31.058709      63.533806    
     24000   256.4234       0.096          1.6600618     -14360.916     -12385.786      30.925911      31.058709      63.557002    
     24100   248.73953      0.0964         1.7788473     -14669.56      -14050.082      30.925911      31.058709      63.580198    
     24200   247.53679      0.0968         1.7810429     -15404.975     -13075.262      30.925911      31.058709      63.603394    
     24300   243.76508      0.0972         1.7177449     -13860.77      -12760.583      30.925911      31.058709      63.62659     
     24400   254.13428      0.0976         1.625998      -14069.988     -12437.068      30.925911      31.058709      63.649786    
     24500   252.88002      0.098          1.6396752     -13865.195     -11861.886      30.925911      31.058709      63.672982    
     24600   252.57771      0.0984         1.6611672     -13843.369     -12775.872      30.925911      31.058709      63.696178    
     24700   248.39188      0.0988         1.5907895     -13326.404     -12194.435      30.925911      31.058709      63.719374    
     24800   258.39431      0.0992         1.6371047     -13237.402     -12191.147      30.925911      31.058709      63.74257     
     24900   253.11429      0.0996         1.6777498     -14221.306     -12794.938      30.925911      31.058709      63.765766    
     25000   250.1012       0.1            1.6210237     -13691.084     -11824.606      30.925911      31.058709      63.788962    
     25100   255.29554      0.1004         1.6571295     -14150.65      -12159.281      30.925911      31.058709      63.812158    
     25200   253.66627      0.1008         1.5804968     -13419.66      -12010.537      30.925911      31.058709      63.835354    
     25300   248.63163      0.1012         1.5756367     -13879.128     -12229.843      30.925911      31.058709      63.85855     
     25400   256.53489      0.1016         1.5333176     -13322.429     -11816.761      30.925911      31.058709      63.881746    
     25500   255.63746      0.102          1.558534      -13789.297     -12165.235      30.925911      31.058709      63.904942    
     25600   251.96023      0.1024         1.4554079     -12705.361     -11428.777      30.925911      31.058709      63.928138    
     25700   256.63627      0.1028         1.4784906     -12900.964     -11402.266      30.925911      31.058709      63.951334    
     25800   252.88113      0.1032         1.5653649     -12948.929     -11479.386      30.925911      31.058709      63.97453     
     25900   248.63954      0.1036         1.5067165     -13010.361     -11263.309      30.925911      31.058709      63.997726    
     26000   25-12665.652      30.925911      31.058709      63.39463     
     23400   251.23877      0.0936         1.6970047     -14930.001     -12744.25       30.925911      31.058709      63.417826    
     23500   256.77964      0.094          1.6487833     -14386.298     -12476.974      30.925911      31.058709      63.441022    
     23600   245.05594      0.0944         1.6412399     -15162.189     -12932.932      30.925911      31.058709      63.464218    
     23700   254.58996      0.0948         1.7458324          26400   258.234        0.1056         1.2302796     -10624.657     -9875.4462      30.925911      31.058709      64.113706    
     26500   256.82337      0.106          1.1885049     -10204.884     -10160.389      30.925911      31.058709      64.136902    
     26600   257.96854      0.1064         1.3474251     -11437.164     -11120.333      30.925911      31.058709      64.160098    
     26700   254.75895      0.1068         1.3274536     -11517.028     -11307.848      30.925911      31.058709      64.183294    
     26800   259.52538      0.1072         1.2356293     -10716.848     -10257.828      30.925911      31.058709      64.20649     
     26900   253.37368      0.1076         1.3555529     -11939.473     -11403.731      30.925911      31.058709      64.229686    
     27000   254.6013       0.108          1.2710064     -10635.328     -10666.704      30.925911      31.058709      64.252882    
     27100   255.16664      0.1084         1.1144515     -9561.8399     -9607.0084      30.925911      31.058709      64.276078    
     27200   251.65154      0.1088         1.0492032     -9471.5075     -9221.9096      30.925911      31.058709      64.299274    
     27300   253.6602       0.1092         0.86657032    -8324.556      -7809.674       30.925911      31.058709      64.32247     
     27400   254.86958      0.1096         0.88850708    -8364.8963     -7974.1525      30.925911      31.058709      64.345666    
     27500   246.66299      0.11           0.83752064    -8574.1837     -7600.9747      30.925911      31.058709      64.368862    
     27600   256.66434      0.1104         0.65797078    -7228.9956     -5877.2763      30.925911      31.058709      64.392058    
     27700   252.30286      0.1108         0.77251751    -7889.7252     -7382.9671      30.925911      31.058709      64.415254    
     27800   253.30847      0.1112         0.85347623    -8257.6417     -7645.0342      30.925911      31.058709      64.43845     
     27900   258.26877      0.1116         0.92048754    -9121.8287     -7752.7513      30.925911      31.058709      64.461646    
     28000   253.37468      0.112          0.99031923    -9546.9559     -8111.8431      30.925911      31.058709      64.484842    
     28100   253.30374      0.1124         0.88347016    -9133.7514     -7836.0659      30.925911      31.058709      64.508038    
     28200   252.82934      0.1128         0.94694563    -9426.0479     -8328.1199      30.925911      31.058709      64.531234    
     28300   254.14317      0.1132         0.96824004    -9859.8834     -8338.9206      30.925911      31.058709      64.55443     
     28400   253.37131      0.1136         1.0122258     -9787.0165     -9198.7095      30.925911      31.058709      64.577626    
     28500   252.82966      0.114          0.95108752    -9628.4026     -8153.5695      30.925911      31.058709      64.600822    
     28600   248.94444      0.1144         0.97216198    -8981.9609     -8229.8918      30.925911      31.058709      64.624018    
     28700   253.74301      0.1148         0.92453516    -9639.5447     -8260.4513      30.925911      31.058709      64.647213    
     28800   254.9434       0.1152         1.0250229     -9992.6447     -8480.2277      30.925911      31.058709      64.670409    
     28900   251.42177      0.1156         0.89227421    -9577.3526     -7669.2872      30.925911      31.058709      64.693605    
     29000   256.94774      0.116          0.86830233    -8301.2982     -7525.1745      30.925911      31.058709      64.716801    
     29100   250.945.4462      30.925911      31.058709      64.113706    
     26500   256.82337      0.106          1.1885049     -10204.884     -10160.389      30.925911      31.058709      64.136902    
     26600   257.96854      0.1064         1.3474251     -11437.164     -11120.333      30.925911      31.058709      64.160098    
     26700   254.75895      0.1068         1.3274536     -11517.028     -11307.848      30.925911      31.058709      64.183294    
     26800   259.52538      0.1072         1.2356293          29500   253.81352      0.118          1.1944894     -10614.842     -9367.151       30.925911      31.058709      64.832781    
     29600   260.64442      0.1184         1.1496109     -10690.966     -8976.6122      30.925911      31.058709      64.855977    
     29700   258.08327      0.1188         1.1472696     -11130.762     -9959.8001      30.925911      31.058709      64.879173    
     29800   246.18227      0.1192         1.1386016     -10393.749     -8877.9096      30.925911      31.058709      64.902369    
     29900   258.19684      0.1196         1.0142107     -9548.0512     -8588.9279      30.925911      31.058709      64.925565    
     30000   250.77622      0.12           1.0229758     -10033.152     -8553.9243      30.925911      31.058709      64.948761    
     30100   252.1844       0.1204         1.0906731     -10282.425     -8655.5729      30.925911      31.058709      64.971957    
     30200   255.46315      0.1208         1.0683681     -10759.459     -9604.9328      30.925911      31.058709      64.995153    
     30300   258.52686      0.1212         1.0214538     -10221.37      -8364.1194      30.925911      31.058709      65.018349    
     30400   251.54984      0.1216         1.0481238     -10335.397     -8480.2421      30.925911      31.058709      65.041545    
     30500   253.68498      0.122          1.0867032     -10449.507     -8851.3387      30.925911      31.058709      65.064741    
     30600   255.20299      0.1224         1.1269375     -10328.369     -9045.4275      30.925911      31.058709      65.087937    
     30700   254.4203       0.1228         1.2201386     -11084.698     -9619.0351      30.925911      31.058709      65.111133    
     30800   253.02864      0.1232         1.254693      -11595.881     -10208.547      30.925911      31.058709      65.134329    
     30900   258.88487      0.1236         1.2587625     -10948.408     -9731.4596      30.925911      31.058709      65.157525    
     31000   252.64076      0.124          1.221426      -10289.114     -9486.8136      30.925911      31.058709      65.180721    
     31100   251.43289      0.1244         1.2080561     -11295.673     -10248.668      30.925911      31.058709      65.203917    
     31200   255.57828      0.1248         1.1462318     -10112.015     -8728.2339      30.925911      31.058709      65.227113    
     31300   249.66816      0.1252         1.1750531     -10501.528     -9025.7044      30.925911      31.058709      65.250309    
     31400   250.16325      0.1256         1.0484261     -10491.04      -8837.5469      30.925911      31.058709      65.273505    
     31500   255.08061      0.126          1.0234774     -10054.951     -8689.2637      30.925911      31.058709      65.296701    
     31600   250.16775      0.1264         1.168071      -10398.032     -9071.7112      30.925911      31.058709      65.319897    
     31700   248.65322      0.1268         1.1848359     -10505.308     -9348.5671      30.925911      31.058709      65.343093    
     31800   256.68116      0.1272         1.1263957     -10532.356     -8495.6102      30.925911      31.058709      65.366289    
     31900   249.22143      0.1276         1.2446662     -11051.562     -8849.7253      30.925911      31.058709      65.389485    
     32000   250.49172      0.128          1.3086054     -11579.926     -10187.512      30.925911      31.058709      65.412681    
     32100   251.55944      0.1284         1.3364434     -11770.21      -10053.117      30.925911      31.058709      65.435877    
     32200   249.34889 1       30.925911      31.058709      64.832781    
     29600   260.64442      0.1184         1.1496109     -10690.966     -8976.6122      30.925911      31.058709      64.855977    
     29700   258.08327      0.1188         1.1472696     -11130.762     -9959.8001      30.925911      31.058709      64.879173    
     29800   246.18227      0.1192         1.1386016     -10393.749     -8877.9096      30.925911      31.058709      64.902369    
     29900   258.19684      0.1196         1.0142107          32600   256.07714      0.1304         1.2311866     -10741.007     -9518.4796      30.925911      31.058709      65.551857    
     32700   255.82941      0.1308         1.162314      -10046.98      -8862.8574      30.925911      31.058709      65.575053    
     32800   252.98855      0.1312         1.207275      -10426.795     -8543.861       30.925911      31.058709      65.598249    
     32900   257.22081      0.1316         1.1645228     -10156.951     -9049.4704      30.925911      31.058709      65.621445    
     33000   252.20142      0.132          1.2052278     -10601.881     -9029.6129      30.925911      31.058709      65.644641    
     33100   250.25188      0.1324         1.2915903     -11215.28      -9747.7904      30.925911      31.058709      65.667837    
     33200   257.98118      0.1328         1.284808      -11310.916     -9814.4879      30.925911      31.058709      65.691033    
     33300   253.78273      0.1332         1.3547709     -12129.095     -10468.841      30.925911      31.058709      65.714229    
     33400   251.66462      0.1336         1.4076919     -12510.077     -10260.76       30.925911      31.058709      65.737425    
     33500   251.38311      0.134          1.3812645     -12138.797     -10554.875      30.925911      31.058709      65.760621    
     33600   253.83541      0.1344         1.2682448     -11261.233     -9422.7403      30.925911      31.058709      65.783817    
     33700   252.66697      0.1348         1.2904943     -11101.823     -9624.673       30.925911      31.058709      65.807013    
     33800   249.45498      0.1352         1.248631      -11461.409     -9351.6937      30.925911      31.058709      65.830209    
     33900   255.58485      0.1356         1.2713717     -11430.944     -9464.7054      30.925911      31.058709      65.853405    
     34000   252.00453      0.136          1.2088357     -11129.214     -9373.81        30.925911      31.058709      65.876601    
     34100   247.06853      0.1364         1.2384158     -10354.117     -9409.5848      30.925911      31.058709      65.899797    
     34200   254.41254      0.1368         1.2265544     -10722.829     -8901.9769      30.925911      31.058709      65.922993    
     34300   251.20896      0.1372         1.2740746     -10778.321     -9405.0195      30.925911      31.058709      65.946189    
     34400   255.04508      0.1376         1.2767363     -11280.633     -9776.4196      30.925911      31.058709      65.969385    
     34500   257.38562      0.138          1.2537914     -10969.275     -9297.0634      30.925911      31.058709      65.992581    
     34600   253.76834      0.1384         1.3034123     -11584.389     -9486.0895      30.925911      31.058709      66.015777    
     34700   244.09772      0.1388         1.2692001     -11022.929     -9954.1983      30.925911      31.058709      66.038973    
     34800   251.17532      0.1392         1.3196681     -11314.207     -9505.9689      30.925911      31.058709      66.062169    
     34900   255.71329      0.1396         1.2590017     -11008.474     -9832.7897      30.925911      31.058709      66.085365    
     35000   249.94635      0.14           1.3311168     -11565.158     -9778.5601      30.925911      31.058709      66.108561    
     35100   248.23694      0.1404         1.3462568     -11625.004     -10186.093      30.925911      31.058709      66.131757    
     35200   255.98289      0.1408         1.2131442     -10257.925     -9143.1486      30.925911      31.058709      66.154953    
     35300   247.18063         30.925911      31.058709      65.551857    
     32700   255.82941      0.1308         1.162314      -10046.98      -8862.8574      30.925911      31.058709      65.575053    
     32800   252.98855      0.1312         1.207275      -10426.795     -8543.861       30.925911      31.058709      65.598249    
     32900   257.22081      0.1316         1.1645228     -10156.951     -9049.4704      30.925911      31.058709      65.621445    
     33000   252.20142      0.132          1.2052278          35700   251.48614      0.1428         0.97392836    -9399.6249     -7823.3972      30.925911      31.058709      66.270933    
     35800   254.1534       0.1432         1.0913168     -9694.9977     -8301.7458      30.925911      31.058709      66.294129    
     35900   253.02873      0.1436         1.06623       -9489.8384     -8415.5617      30.925911      31.058709      66.317324    
     36000   255.31498      0.144          1.0724796     -9932.998      -8576.0183      30.925911      31.058709      66.34052     
     36100   252.45081      0.1444         1.0494596     -10207.41      -8647.6212      30.925911      31.058709      66.363716    
     36200   255.07719      0.1448         0.89005834    -8525.3367     -7875.7723      30.925911      31.058709      66.386912    
     36300   253.23211      0.1452         0.79185612    -8429.3425     -7045.2529      30.925911      31.058709      66.410108    
     36400   249.76336      0.1456         0.72428686    -7940.8732     -6934.2556      30.925911      31.058709      66.433304    
     36500   254.95091      0.146          0.55153336    -7298.3905     -6400.7804      30.925911      31.058709      66.4565      
     36600   256.2096       0.1464         0.46085056    -6382.4325     -4856.5529      30.925911      31.058709      66.479696    
     36700   254.99215      0.1468         0.46056071    -5806.194      -5158.796       30.925911      31.058709      66.502892    
[...]
     45400   256.71035      0.1816         0.70135383    -7147.0534     -5744.7738      30.925911      31.058709      68.520943    
     45500   249.00029      0.182          0.71439932    -7363.8596     -5959.7511      30.925911      31.058709      68.544139    
     45600   249.0362       0.1824         0.63039951    -6331.832      -5282.9643      30.925911      31.058709      68.567335    
     45700   252.26092      0.1828         0.51139464    -5625.9269     -4738.2367      30.925911      31.058709      68.590531    
     45800   253.83998      0.1832         0.47883231    -5712.7668     -5204.5808      30.925911      31.058709      68.613727    
     45900   248.76607      0.1836         0.52381497    -6449.6007     -4771.4095      30.925911      31.058709      68.636923    
     46000   249.82423      0.184          0.4902622     -5648.7162     -4706.9602      30.925911      31.058709      68.660119    
     46100   256.28564      0.1844         0.56097691    -6530.2813     -5080.8057      30.925911      31.058709      68.683315    
     46200   246.15706      0.1848         0.51254353    -5336.0813     -4438.4167      30.925911      31.058709      68.706511    
     46300   253.54665      0.1852         0.55331387    -6655.0018     -5296.199       30.925911      31.058709      68.729707    
     46400   255.0609       0.1856         0.55077133    -6544.3654     -5434.3283      30.925911      31.058709      68.752903    
     46500   252.10541      0.186          0.62028432    -6719.3017     -6005.1893      30.925911      31.058709      68.776099    
     46600   254.21575      0.1864         0.6792639     -7135.7621     -6148.9141      30.925911      31.058709      68.799295    
     46700   250.77343      0.1868         0.63514621    -7174.0739     -5212.0475      30.925911      31.058709      68.822491    
     46800   261.30224      0.1872         0.70301715    -7470.7419     -6064.6149      30.925911      31.058709      68.845687    
     46900   256.47308      0.1876         0.90124798    -8776.0636     -7452.5244      30.925911      31.058709      68.868883    
     47000   248.51625      0.188          0.76001295    -7857.1533     -6219.7531      30.925911      31.058709      68.892079    
     47100   254.09552      0.1884         0.69126727    -7280.6023     -5659.7889      30.925911      31.058709      68.915275    
     47200   254.03989      0.1888         0.53406718    -6146.044      -4623.2154      30.925911      31.058709      68.938471    
     47300   247.98156      0.1892         0.43659596    -5977.305      -4318.7672      30.925911      31.058709      68.961667    
     47400   252.43418      0.1896         0.44628781    -6257.8745     -4802.0556      30.925911      31.058709      68.984863    
     47500   251.45864      0.19           0.45659685    -6202.6774     -5056.8421      30.925911      31.058709      69.008059    
     47600   253.87621      0.1904         0.64397373    -7259.3356     -5599.1482      30.925911      31.058709      69.031255    
     47700   257.32058      0.1908            31.058709      68.428159    
     45100   253.08085      0.1804         0.53333105    -6058.9619     -5251.6196      30.925911      31.058709      68.451355    
     45200   250.05536      0.1808         0.59874475    -7063.6412     -5740.1003      30.925911      31.058709      68.474551    
     45300   246.7756       0.1812         0.65241466    -6898.3574     -6564.7039      30.925911      31.058709      68.497747    
     45400   256.71035      0.1816         0.70135383         48100   258.7272       0.1924         0.72768293    -7775.722      -5900.1182      30.925911      31.058709      69.147235    
     48200   255.96948      0.1928         0.66269122    -7420.4085     -5936.9795      30.925911      31.058709      69.170431    
     48300   256.53287      0.1932         0.54920954    -6655.2516     -4807.6509      30.925911      31.058709      69.193627    
     48400   252.3029       0.1936         0.66364035    -7344.6186     -5871.8508      30.925911      31.058709      69.216823    
     48500   251.80767      0.194          0.70668375    -7055.8513     -5789.3367      30.925911      31.058709      69.240019    
     48600   252.98778      0.1944         0.65286477    -6879.1527     -5150.0078      30.925911      31.058709      69.263215    
     48700   249.19822      0.1948         0.66202008    -6586.8809     -5775.6371      30.925911      31.058709      69.286411    
     48800   252.6284       0.1952         0.68287541    -7147.1584     -5576.0066      30.925911      31.058709      69.309607    
     48900   252.71023      0.1956         0.56131219    -6091.5517     -4924.3365      30.925911      31.058709      69.332803    
     49000   257.30231      0.196          0.60725206    -6774.9792     -5518.7529      30.925911      31.058709      69.355999    
     49100   250.99802      0.1964         0.70807532    -6807.7711     -5870.6373      30.925911      31.058709      69.379195    
     49200   254.81887      0.1968         0.72586746    -7180.8783     -6125.6643      30.925911      31.058709      69.402391    
     49300   258.80634      0.1972         0.87453714    -7892.8088     -7024.8183      30.925911      31.058709      69.425587    
     49400   252.61932      0.1976         0.90682738    -8287.7068     -7452.402       30.925911      31.058709      69.448783    
     49500   252.59551      0.198          0.86428089    -8328.5402     -7256.9041      30.925911      31.058709      69.471979    
     49600   251.50838      0.1984         0.83162261    -7614.3387     -6512.0591      30.925911      31.058709      69.495175    
     49700   249.20257      0.1988         0.67168465    -6830.0588     -6028.0748      30.925911      31.058709      69.518371    
     49800   255.32777      0.1992         0.59271859    -6220.6459     -5470.7278      30.925911      31.058709      69.541567    
     49900   256.1891       0.1996         0.49263971    -4979.0197     -5296.8966      30.925911      31.058709      69.564763    
     50000   252.6184       0.2            0.53379231    -5930.6367     -4883.7483      30.925911      31.058709      69.587959    
     50100   248.1903       0.2004         0.57766177    -6071.2717     -5199.8871      30.925911      31.058709      69.611155    
     50200   253.84389      0.2008         0.7031299     -6731.2378     -6206.5651      30.925911      31.058709      69.634351    
     50300   261.41927      0.2012         0.84864634    -7753.3885     -6907.6177      30.925911      31.058709      69.657547    
     50400   253.25795      0.2016         0.81214906    -7814.3322     -6884.1612      30.925911      31.058709      69.680742    
     50500   248.05527      0.202          0.75567355    -7250.055      -6248.8129      30.925911      31.058709      69.703938    
     50600   249.13943      0.2024         0.68170742    -7526.4685     -5767.9863      30.925911      31.058709      69.727134    
     50700   247.43675      0.2028         0.65499063    -7039.8677     -5723.52        30.925911      31.058709      69.75033     
     50800   249.64581      0.2032         0.841.058709      69.147235    
     48200   255.96948      0.1928         0.66269122    -7420.4085     -5936.9795      30.925911      31.058709      69.170431    
     48300   256.53287      0.1932         0.54920954    -6655.2516     -4807.6509      30.925911      31.058709      69.193627    
     48400   252.3029       0.1936         0.66364035    -7344.6186     -5871.8508      30.925911      31.058709      69.216823    
     48500   251.80767      0.194          0.70668375         51200   258.83947      0.2048         0.34144817    -4639.5416     -3691.4894      30.925911      31.058709      69.86631     
     51300   254.86634      0.2052         0.34912527    -4694.0438     -3564.0212      30.925911      31.058709      69.889506    
     51400   251.59012      0.2056         0.16514277    -3894.1499     -2796.5453      30.925911      31.058709      69.912702    
     51500   253.25245      0.206          0.16081309    -3182.1153     -2506.8464      30.925911      31.058709      69.935898    
     51600   258.35544      0.2064         0.28807356    -4156.0935     -3182.074       30.925911      31.058709      69.959094    
     51700   250.01734      0.2068         0.34049202    -4702.8871     -3772.4587      30.925911      31.058709      69.98229     
     51800   248.08973      0.2072         0.52096725    -5857.1343     -5173.6193      30.925911      31.058709      70.005486    
     51900   257.49136      0.2076         0.55713645    -6103.0575     -4924.508       30.925911      31.058709      70.028682    
     52000   247.98883      0.208          0.593298      -6364.37       -5493.9698      30.925911      31.058709      70.051878    
     52100   245.14776      0.2084         0.63816308    -6170.2454     -6048.1477      30.925911      31.058709      70.075074    
     52200   253.37209      0.2088         0.60437525    -6666.2691     -5934.7043      30.925911      31.058709      70.09827     
     52300   249.86792      0.2092         0.40199662    -5290.688      -4345.1248      30.925911      31.058709      70.121466    
     52400   248.24111      0.2096         0.40855898    -5229.582      -4345.1319      30.925911      31.058709      70.144662    
     52500   248.73507      0.21           0.28484859    -3980.04       -3198.0385      30.925911      31.058709      70.167858    
     52600   254.00034      0.2104         0.3402773     -4751.9241     -3922.4587      30.925911      31.058709      70.191054    
     52700   250.29233      0.2108         0.34761205    -4781.5519     -3930.9295      30.925911      31.058709      70.21425     
     52800   251.03285      0.2112         0.24082471    -4115.2362     -2457.4954      30.925911      31.058709      70.237446    
     52900   258.48488      0.2116         0.29264514    -4173.1426     -3238.9954      30.925911      31.058709      70.260642    
     53000   251.99135      0.212          0.37610016    -4897.8551     -3855.5463      30.925911      31.058709      70.283838    
     53100   249.6366       0.2124         0.41492087    -5140.8434     -4169.9599      30.925911      31.058709      70.307034    
     53200   254.40066      0.2128         0.5160828     -5371.0685     -4040.6973      30.925911      31.058709      70.33023     
     53300   250.69845      0.2132         0.43106586    -5286.7201     -4255.3357      30.925911      31.058709      70.353426    
     53400   249.92944      0.2136         0.52488032    -5985.2789     -5141.3371      30.925911      31.058709      70.376622    
     53500   251.94216      0.214          0.56095329    -6228.8848     -5060.2807      30.925911      31.058709      70.399818    
     53600   252.57175      0.2144         0.56367265    -6343.1918     -5248.8706      30.925911      31.058709      70.423014    
     53700   253.0431       0.2148         0.48616268    -5747.1469     -4533.9007      30.925911      31.058709      70.44621     
     53800   255.89852      0.2152         0.35947443    -4885.7181     -3737.1786      30.925911      31.058709      70.469406    
     53900   249.3733       0.2156         0.2920588709      69.86631     
     51300   254.86634      0.2052         0.34912527    -4694.0438     -3564.0212      30.925911      31.058709      69.889506    
     51400   251.59012      0.2056         0.16514277    -3894.1499     -2796.5453      30.925911      31.058709      69.912702    
     51500   253.25245      0.206          0.16081309    -3182.1153     -2506.8464      30.925911      31.058709      69.935898    
     51600   258.35544      0.2064         0.28807356         54300   249.45288      0.2172         0.29189133    -4633.6737     -3378.1899      30.925911      31.058709      70.585386    
     54400   257.97972      0.2176         0.3467264     -4405.4072     -3035.1548      30.925911      31.058709      70.608582    
     54500   251.21302      0.218          0.41180412    -5348.9743     -4066.8329      30.925911      31.058709      70.631778    
     54600   249.76356      0.2184         0.49305868    -5653.3316     -4963.8601      30.925911      31.058709      70.654974    
     54700   254.08494      0.2188         0.49112181    -5314.9657     -4793.2628      30.925911      31.058709      70.67817     
     54800   257.35428      0.2192         0.45586947    -5691.7351     -4108.9793      30.925911      31.058709      70.701366    
     54900   248.73847      0.2196         0.4626717     -5649.6455     -4311.1431      30.925911      31.058709      70.724562    
     55000   255.65481      0.22           0.41940041    -5138.8048     -4000.8275      30.925911      31.058709      70.747758    
     55100   254.33388      0.2204         0.33895854    -4747.226      -3936.1568      30.925911      31.058709      70.770954    
     55200   251.52004      0.2208         0.27410737    -4309.4075     -2634.2113      30.925911      31.058709      70.79415     
     55300   252.74951      0.2212         0.22961981    -3932.307      -2823.7376      30.925911      31.058709      70.817346    
     55400   252.46613      0.2216         0.19751562    -3500.3723     -2271.0591      30.925911      31.058709      70.840542    
     55500   252.29035      0.222          0.25808031    -3778.9647     -2778.8266      30.925911      31.058709      70.863738    
     55600   252.30984      0.2224         0.2686465     -3958.8886     -3228.0604      30.925911      31.058709      70.886934    
     55700   256.90244      0.2228         0.31117966    -4270.9002     -3600.0218      30.925911      31.058709      70.91013     
     55800   247.04932      0.2232         0.34086182    -4511.2123     -3498.6199      30.925911      31.058709      70.933326    
     55900   250.66901      0.2236         0.37134409    -4639.5863     -3878.3533      30.925911      31.058709      70.956522    
     56000   253.16816      0.224          0.39437904    -4623.5694     -3783.9396      30.925911      31.058709      70.979718    
     56100   250.92164      0.2244         0.44017956    -5247.5695     -4489.008       30.925911      31.058709      71.002914    
     56200   245.95046      0.2248         0.43748669    -4967.2701     -3994.5831      30.925911      31.058709      71.02611     
     56300   252.0752       0.2252         0.36157278    -4434.1851     -3817.9435      30.925911      31.058709      71.049306    
     56400   251.6846       0.2256         0.37390003    -4978.8405     -3686.8904      30.925911      31.058709      71.072502    
     56500   255.20256      0.226          0.23170482    -4171.8476     -2967.3894      30.925911      31.058709      71.095698    
     56600   256.28464      0.2264         0.13976006    -3495.7521     -2170.3961      30.925911      31.058709      71.118894    
     56700   255.22042      0.2268         0.11264516    -2861.9163     -2129.6285      30.925911      31.058709      71.14209     
Fix halt condition for fix-id halt_frac met on step 56800 with value 1
     56800   251.87273      0.2272         0.01562125    -2487.682      -1453.9138      30.925911      31.058709      71.165286    
Loop time of 152.591 on 4 procs for 56800 steps with 4263 atoms

Performance: 64.323 ns/day, 0.373 hours/ns, 372.237      70.585386    
     54400   257.97972      0.2176         0.3467264     -4405.4072     -3035.1548      30.925911      31.058709      70.608582    
     54500   251.21302      0.218          0.41180412    -5348.9743     -4066.8329      30.925911      31.058709      70.631778    
     54600   249.76356      0.2184         0.49305868    -5653.3316     -4963.8601      30.925911      31.058709      70.654974    
     54700   Output  | 1.7709     | 2.1912     | 2.6122     |  20.7 |  1.44
Modify  | 1.3989     | 5.0499     | 15.822     | 276.8 |  3.31
Other   |            | 0.7348     |            |       |  0.48

Nlocal:        1065.75 ave        1584 max         455 min
Histogram: 1 0 0 0 0 1 1 0 0 1
Nghost:        3143.25 ave        3896 max        2465 min
Histogram: 1 1 0 0 0 0 0 1 0 1
Neighs:          94330 ave      172294 max       32465 min
Histogram: 1 0 1 0 1 0 0 0 0 1

Total # of neighbors = 377320
Ave neighs/atom = 88.510439
Neighbor list builds = 908
Dangerous builds = 0
Total wall time: 0:03:15
.1568      30.925911      31.058709      70.770954    
     55200   251.52004      0.2208         0.27410737    -4309.4075     -2634.2113      30.925911      31.058709      70.79415     
     55300   252.74951      0.2212         0.22961981    -3932.307      -2823.7376      30.925911      31.058709      70.817346    
     55400   252.46613      0.2216         0.19751562    -3500.3723     -2271.0591      30.925911      31.058709      70.840542    
     55500   252.29035      0.222          0.25808031    -3778.9647     -2778.8266      30.925911      31.058709      70.863738    
     55600   252.30984      0.2224         0.2686465     -3958.8886     -3228.0604      30.925911      31.058709      70.886934    
     55700   256.90244      0.2228         0.31117966    -4270.9002     -3600.0218      30.925911      31.058709      70.91013     
     55800   247.04932      0.2232         0.34086182    -4511.2123     -3498.6199      30.925911      31.058709      70.933326    
     55900   250.66901      0.2236         0.37134409    -4639.5863     -3878.3533      30.925911      31.058709      70.956522    
     56000   253.16816      0.224          0.39437904    -4623.5694     -3783.9396      30.925911      31.058709      70.979718    
     56100   250.92164      0.2244         0.44017956    -5247.5695     -4489.008       30.925911      31.058709      71.002914    
     56200   245.95046      0.2248         0.43748669    -4967.2701     -3994.5831      30.925911      31.058709      71.02611     
     56300   252.0752       0.2252         0.36157278    -4434.1851     -3817.9435      30.925911      31.058709      71.049306    
     56400   251.6846       0.2256         0.37390003    -4978.8405     -3686.8904      30.925911      31.058709      71.072502    
     56500   255.20256      0.226          0.23170482    -4171.8476     -2967.3894      30.925911      31.058709      71.095698    
     56600   256.28464      0.2264         0.13976006    -3495.7521     -2170.3961      30.925911      31.058709      71.118894    
     56700   255.22042      0.2268         0.11264516    -2861.9163     -2129.6285      30.925911      31.058709      71.14209     
Fix halt condition for fix-id halt_frac met on step 56800 with value 1
     56800   251.87273      0.2272         0.01562125    -2487.682      -1453.9138      30.925911      31.058709      71.165286    
Loop time of 152.591 on 4 procs for 56800 steps with 4263 atoms

Performance: 64.323 ns/day, 0.373 hours/ns, 372.237 timesteps/s, 1.587 Matom-step/s
104.3% CPU use with 4 MPI tasks x 1 OpenMP threads

MPI task timing breakdown:
Section |  min time  |  avg time  |  max time  |%varavg| %total
---------------------------------------------------------------
Pair    | 92.794     | 116.21     | 142.24     | 191.1 | 76.16
Neigh   | 0.83064    | 1.4308     | 2.3214     |  52.0 |  0.94
Comm    | 3.5526     | 26.974     | 54.531     | 367.8 | 17.68
Output  | 1.7709     | 2.1912     | 2.6122     |  20.7 |  1.44
Modify  | 1.3989     | 5.0499     | 15.822     | 276.8 |  3.31
Other   |            | 0.7348     |            |       |  0.48

Nlocal:        1065.75 ave        1584 max         455 min
Histogram: 1 0 0 0 0 1 1 0 0 1
Nghost:        3143.25 ave        3896 max        2465 min
Histogram: 1 1 0 0 0 0 0 1 0 1
Neighs:          94330 ave      172294 max       32465 min
Histogram: 1 0 1 0 1 0 0 0 0 1

Total # of neighbors = 377320
Ave neighs/atom = 88.510439
Neighbor list builds = 908
Dangerous builds = 0
Total wall time: 0:03:15
