LAMMPS (10 Dec 2025)
OMP_NUM_THREADS environment is not set. Defaulting to 1 thread.
  using 1 OpenMP thread(s) per MPI task
Reading data file ...
  orthogonal box = (0 0 0) to (51.904466 49.945096 49.443122)
  1 by 1 by 1 MPI processor grid
  reading atoms ...
  7560 atoms
  read_data CPU = 0.023 seconds
Changing box ...
  triclinic box = (0 0 0) to (51.904466 49.945096 49.443122) with tilt (0 0 0)
Reading eam potential file /mnt/c/Users/iwash/Documents/Repositories/Simulation/potentials/Au_u3.eam with DATE: 2007-06-11
=== Phase 1: 0K Relaxation ===
Switching to 'neigh_modify every 1 delay 0 check yes' setting during minimization
Neighbor list info ...
  update: every = 1 steps, delay = 0 steps, check = yes
  max neighbors/atom: 2000, page size: 100000
  master list distance cutoff = 7.55
  ghost atom cutoff = 7.55
  binsize = 3.775, bins = 14 14 14
  1 neighbor lists, perpetual/occasional/extra = 1 0 0
  (1) pair eam, perpetual
      attributes: half, newton on
      pair build: half/bin/atomonly/newton/tri
      stencil: half/bin/3d/tri
      bin: standard
Setting up cg style minimization ...
  Unit style    : metal
  Current step  : 0
WARNING: Energy due to 3 extra global DOFs will be included in minimizer energies
 (src/min.cpp:222)
Per MPI rank memory allocation (min/avg/max) = 9.71 | 9.71 | 9.71 Mbytes
   Step          Temp          PotEng         Press           Pxx            Pyy            Pzz             Lx             Ly             Lz      
         0   0             -29710.655      2464.333       2464.333       2464.333       2464.333       51.904466      49.945096      49.443122    
         2   0             -29710.8       -0.049243444   -0.049243444   -0.049243444   -0.049243444    51.929923      49.969591      49.467372    
Loop time of 0.0282887 on 1 procs for 2 steps with 7560 atoms

111.1% CPU use with 1 MPI tasks x 1 OpenMP threads

Minimization stats:
  Stopping criterion = energy tolerance
  Energy initial, next-to-last, final = 
     -29710.6551161294  -29710.7999998498  -29710.8000014164
  Force two-norm initial, final = 341.47045 0.0068301156
  Force max component initial, final = 197.14806 0.0039433691
  Final line search alpha, max atom move = 0.0015875943 6.2604702e-06
  Iterations, force evaluations = 2 4

MPI task timing breakdown:
Section |  min time  |  avg time  |  max time  |%varavg| %total
---------------------------------------------------------------
Pair    | 0.027154   | 0.027154   | 0.027154   |   0.0 | 95.99
Neigh   | 0          | 0          | 0          |   0.0 |  0.00
Comm    | 0.00012805 | 0.00012805 | 0.00012805 |   0.0 |  0.45
Output  | 0          | 0          | 0          |   0.0 |  0.00
Modify  | 0          | 0          | 0          |   0.0 |  0.00
Other   |            | 0.001007   |            |       |  3.56

Nlocal:           7560 ave        7560 max        7560 min
Histogram: 1 0 0 0 0 0 0 0 0 0
Nghost:           9788 ave        9788 max        9788 min
Histogram: 1 0 0 0 0 0 0 0 0 0
Neighs:         325080 ave      325080 max      325080 min
Histogram: 1 0 0 0 0 0 0 0 0 0

Total # of neighbors = 325080
Ave neighs/atom = 43
Neighbor list builds = 0
Dangerous builds = 0
=== Phase 2: Equilibration at 300.0K ===
Setting up Verlet run ...
  Unit style    : metal
  Current step  : 0
  Time step     : 0.002
Per MPI rank memory allocation (min/avg/max) = 7.476 | 7.476 | 7.476 Mbytes
   Step          Temp          PotEng         Press           Pxx            Pyy            Pzz             Lx             Ly             Lz      
         0   300  unfix relax

print '=== Phase 2: Equilibration at 300.0K ==='
=== Phase 2: Equilibration at 300.0K ===
reset_timestep 0
velocity all create 300.0 19069 dist gaussian
fix eq all npt temp 300.0 300.0 0.1 tri 0.0 0.0 1.0
run 2500
Per MPI rank memory allocation (min/avg/max) = 7.476 | 7.476 | 7.476 Mbytes
   Step          Temp          PotEng         Press           Pxx            Pyy            Pzz             Lx             Ly             Lz      
         0   300           -29710.8        2439.0363      2432.8701      2442.5126      2441.7262      51.929923831    
       400   305.92858     -29439.331      4371.2666      4294.9556      4365.4451      4453.399       52.060358      50.085982      49.580523    
       500   307.0719      -29393.054      420.50863      580.76453      382.74461      298.01675      52.12262       50.161665      49.6542      
       600   291.73786     -29397.829     -2042.5355     -2194.6624     -1834.0031     -2098.9411      52.165994      50.165159      49.675594    
       700   296.72996     -29417.921      510.32663      595.47633      509.28744      426.21612      52.101056      50.150228      49.640277    
       800   303.57516     -29408.668      378.67851      264.28749      442.99712      428.7509       52.11122       50.14309       49.6578      
       900   301.80077     -29398.219     -442.91719     -341.56776     -819.52617     -167.65766      52.112453      50.196579      49.645496    
      1000   295.63589     -29406.562      169.1649       157.2682       714.80463     -364.57814      52.118733      50.129602      49.671867    
      1100   300.56651     -29415.377     -123.51386      275.15493     -667.8613       22.164792      52.08424       50.198918      49.6327      
      1200   299.61898     -29406.596      610.66178      383.66401      859.35963      588.96171      52.127754      50.137582      49.642929    
      1300   300.02529     -29401.025     -974.92356     -727.88053     -1089.9881     -1106.9021      52.115259      50.182959      49.66794     
      1400   294.82127     -29405.96       926.8886       802.55803      694.98325      1283.1245      52.119999      50.171499      49.608336    
      1500   300.40554     -29414.212     -913.72709     -887.46318     -263.51816     -1590.1999      52.127243      50.129943      49.688223    
      1600   297.74218     -29401.475      374.8733       588.63712     -607.20786      1143.1906      52.096671      50.229225      49.598461    
      1700   302.52128     -29401.348     -365.45963     -801.17699      691.30136     -986.50325      52.161514      50.100072      49.688733    
      1800   299.12956     -29415.113      292.08189      1187.0534     -715.92255      405.11478      52.062644      50.209959      49.631544    
      1900   298.75154     -29412.06       237.58634     -568.78114      1052.0746      229.46562      52.188535      50.089224      49.637322    
      2000   303.90236     -29398.78      -676.77587      104.59392     -1082.7098     -1052.2118      52.102169      50.177106      49.682531    
      2100   302.47772     -29407.916      821.71897      251.11816      879.22068      1334.8181      52.161055      50.141048      49.602082    
      2200   297.48576     -29416.359     -384.87256     -10.17008      -190.75907     -953.68853      52.087612      50.155697      49.678489    
      2300   299.90185     -29405.204      452.2704       339.87373      327.52894      689.40854      52.130952      50.159125      49.628187    
      2400   301.87871     -29401.477     -624.15989     -628.59351     -403.44517     -840.44099      52.141565      50.144163      49.671658    
      2500   298.31598     -29410.2        289.67085      348.78012     -24.579323      544.81174      52.119324      50.16976       49.623707    
Loop time of 14.0137 on 1 procs for 2500 steps with 7560 atoms

Performance: 30.827 ns/day, 0.779 hours/ns, 178.397 timesteps/s, 1.349 Matom-step/s
111.1% CPU use with 1 MPI tasks x 1 OpenMP threads

MPI task timing breakdown:
Section |  min time  |  avg time  |  max time  |%varavg| %total
-50.144163      49.671658    
      2500   298.31598     -29410.2        289.67085      348.78012     -24.579323      544.81174      52.119324      50.16976       49.623707    
Loop time of 14.0137 on 1 procs for 2500 steps with 7560 atoms

Performance: 30.827 ns/day, 0.779 hours/ns, 178.397 timesteps/s, 1.349 Matom-step/s
111.1% CPU use with 1 MPI tasks x 1 OpenMP threads

MPI task timing breakdown:
Section |  min time  |  avg time  |  max time  |%varavg| %total
---------------------------------------------------------------
Pair    | 13.415     | 13.415      9602 max        9602 min
Histogram: 1 0 0 0 0 0 0 0 0 0
Neighs:         362600 ave      362600 max      362600 min
Histogram: 1 0 0 0 0 0 0 0 0 0

Total # of neighbors = 362600
Ave neighs/atom = 47.962963
Neighbor list builds = 4
Dangerous builds = 0
=== Phase 3: Tension ===
Neighbor list info ...
  update: every = 1 steps, delay = 10 steps, check = yes
  max neighbors/atom: 2000, page size: 100000
  master list distance cutoff = 7.55
  ghost atom cutoff = 7.55
  binsize = 3.775, bins = 14 14 14
  3 neighbor lists, perpetual/occasional/extra = 1 2 0
  (1) pair eam, perpetual
      attributes: half, newton on
      pair build: half/bin/atomonly/newton/tri
      stencil: half/bin/3d/tri
      bin: standard
  (2) compute cna/atom, occasional
      attributes: full, newton on
      pair build: full/bin/atomonly
      stencil: full/bin/3d
      bin: standard
  (3) compute centro/atom, occasional
      attributes: full, newton on
      pair build: full/bin/atomonly
      stencil: full/bin/3d
      bin: standard
Setting up Verlet run ...
  Unit style    : metal
  Current step  : 0
  Time step     : 0.002
Per MPI rank memory allocation (min/avg/max) = 10.99 | 10.99 | 10.99 Mbytes
   Step          Temp         v_strain       v_stress    v_stress_drop  v_drop_from_peak      Pxx            Pyy            Pzz             Lx             Ly             Lz      
         0   298.31598      2.8637229e-16 -0.054481174   -2.7755576e-17  0.054481174    348.78012     -24.579323      544.81174      52.119324      50.16976       49.623707    
       100   303.50709      0.0001        -0.029809996   -0.012335589    0.029809996   -159.01708      58.039617      298.09996      52.132858      50.158025      49.628669    
       200   302.55126      0.0002        -0.068750095    0.01773634     0.068750095    759.31778      269.08914      687.50095      52.101062      50.183396      49.633631    
       300   302.44265      0.0003        -0.025322096   -0.019268745    0.025322096   -47.33455       396.60078      253.22096      52.150114      50.133691      49.638594    
       400   300.00536      0.0004         0.071551447   -0.09291383     0             -949.01301     -1417.1642     -715.51447      52.127254      50.186681      49.643556    
       500   302.47457      0.0005         0.0021996036  -0.019634989    0.069351843   -382.91056     -246.00647     -21.996036      52.104451      50.182244      49.648518    
       600   300.99741      0.0006        -0.124475       0.091748245    0.19602645     1473.3102      1860.4377      1244.75        52.098822      50.129122      49.653481    
       700   299.38132      0.0007        -0.03919317     0.0056581091   0.11074462     1271.4732      450.98149      391.9317       52.089174      50.151022      49.658443    
       800   298.8961       0.0008         0.082366181   -0.10302333     0             -1292.6596     -437.39141     -823.66181      52.164438      50.127778      49.663406    
       900   299.23653      0.0009         0.093493646   -0.10273571     0             -236.51423     -1183.6455     -934.93646      52.091641      50.200201      49.668368    
      1000   301.96111      0.001          0.062485408   -0.060030815    0.031008239   -353.70845      50.075101     -624.85408      52.118135      50.144187      49.67333     
      1100   298.4436       0.0011         0.0053920778   0.0005827221   0.088101568    1081.2421      432.50056     -53.920778      52.073897      50.149656      49.678293    
      1200   294.6152       0.0012         0.032192672   -0.016123595    0.061300975    631.37805      929.89891     -321.92672      52.132809      50.102405      49.683255    
      1300   300.01193      0.0013         0.15561847    -0.12145534     0             -553.92141     -1040.4765     -1556.1847      52.093073      50.179374      49.688217    
      1400   297.02869      0.0014         0.17709766    -0.1323799      0             -1241.3682     -1009.2127     -1770.9766      52.105326      50.172644      49.69318     
      1500   304.09828      0.0015         0.13685627    -0.078672852    0.040241383   -53.049553     -376.73224     -1368.5627      52.097701      50.154501      49.698142    
      1600   302.05179      0.0016         0.074938037    0.0031866882   0.10215962     770.99731      898.76863     -749.38037      52.122188      50.086773      49.703104    
      1700   299.45265      0.0017         0.068444139    0.020444317    0.10865352     855.4452       952.39311     -684.44139      52.095246      50.109486      49.708067    
      1800   302.0666       0.0018         0.12716961    -0.033800814    0.049928043    244.29665      97.157973     -1271.6961      52.072195      50.151544      49.713029    
      1900   300.61262      0.0019         0.20344262    -0.099078925    0             -481.06922     -460.46872     -2034.4262      52.091652      50.145449      49.717992    
      2000   298.56362      0.002          0.20731647    -0.08846967     0             -519.13239     -573.50169     -2073.1647      52.112193      50.118142      49.722954    
      2100   298.93861      0.0021         0.11395002     0.01575258     0.093366455    657.09278      750.52744     -1139.5002      52.101169      50.097748      49.727916    
      2200   300.20103      0.0022         0.16190239    -0.019228819    0.045414085    436.57712      323.70005     -1619.0239      52.070655      50.133686      49.732879    
      2300   305.13084      0.0023         0.22305799    -0.073640468    0             -684.73008     -500.52771     -2230.5799      52.083611      50.139421      49.737841    
      2400   298.24084      0.0024         0.21713276    -0.063711728    0.00592523     100.96756     -144.94096     -2171.3276      52.071467      50.130882      49.742803    
      2500   298.82853      0.0025         0.17399703    -0.01686192     0.049060962    253.99841      949.63964     -1739.9703      52.105369      50.081616      49.747766    
      2600   305.97425      0.0026         0.1825991     -0.01469789     0.040458886    783.88414      621.77195     -1825.991       52.077099      50.107007      49.752728    
      2700   299.41205      0.0027         0.23506779    -0.050504209    0              192.82555      266.85648     -2350.6779      52.076904      50.111125      49.757691    
      2800   295.92937      0.0028         0.38036174    -0.17047895     0             -1272.7021     -1611.2942     -3803.6174      52.071654      50.161014      49.762653    
      2900   302.42924      0.0029         0.33407316    -0.11112731     0.046288578   -1247.2192     -1216.5514     -3340.7316      52.102562      50.125007      49.767615    
      3000   299.73091      0.003          0.20782024     0.015175977    0.17254149     872.72152      809.8873      -2078.2024      52.069244      50.091663      49.772578    
      3100   296.20002      0.0031         0.16870995     0.059762262    0.21165178     1831.0744      1749.0931     -1687.0995      52.039464      50.085344      49.77754     
      3200   303.8217       0.0032         0.30916492    -0.065966455    0.071196813   -155.42522     -201.32016     -3091.6492      52.063592      50.116932      49.782502    
      3300   300.89285      0.0033         0.37262459    -0.11446946     0.0077371504  -1125.1082     -797.70154     -3726.2459      52.102665      50.098435      49.787465    
      3400   296.86013      0.0034         0.32827417    -0.059004902    0.052087566    146.46716     -338.79455     -3282.7417      52.063089      50.109927      49.792427    
      3500   302.75042      0.0035         0.33137864    -0.046371211    0.048983095   -84.780344      543.17408     -3313.7864      52.079372      50.084503      49.79739     
      3600   298.42422      0.0036         0.33840294    -0.037815127    0.041958795    792.87131      434.91363     -3384.0294      52.038452      50.103732      49.802352    
      3700   299.84372      0.0037         0.35240088    -0.040079758    0.027960855    358.17682      187.94133     -3524.0088      52.044296      50.104225      49.807314    
      3800   307.97496      0.0038         0.42056726    -0.10422559     0             -1176.5529     -364.13788     -4205.6726      52.105681      50.075478      49.812277    
      3900   301.1868       0.0039         0.42138591    -0.096312959    0              240.43954     -1025.7537     -4213.8591      52.031877      50.132583      49.817239    
      4000   298.97552      0.004          0.38312107    -0.040518032    0.038264845   -199.3734       1348.7053     -3831.2107      52.100627      50.030351      49.822201    
      4100   299.81164      0.0041         0.33168076     0.027219358    0.089705155    1660.0751      369.43472     -3316.8076      51.976086      50.133391      49.827164    
      4200   302.3731       0.0042         0.40918107    -0.040279342    0.01220484    -660.46074      729.94595     -4091.8107      52.082462      50.058994      49.832126    
      4300   300.32842      0.0043         0.52427609    -0.14020921     0             -682.52248     -1470.2951     -5242.7609      52.034629      50.134078      49.837088    
      4400   296.37167      0.0044         0.53507754    -0.13033033     0             -1512.2699     -826.51204     -5350.7754      52.092902      50.076996      49.842051    
      4500   299.26513      0.0045         0.47159154    -0.052823034    0.063486004    234.24221      71.372974     -4715.9154      52.014762      50.11196       49.847013    
      4600   299.66022      0.0046         0.41225359     0.01389998     0.12282395     1131.6034      707.34867     -4122.5359      51.994552      50.096817      49.851976    
      4700   303.06819      0.0047         0.46282419    -0.025628291    0.072253351   -319.76268      793.73688     -4628.2419      52.08622       50.023972      49.856938    
      4800   297.66039      0.0048         0.47334688    -0.030873012    0.061730668    701.46737     -353.39279     -4733.4688      52.017073      50.09892       49.8619      
      4900   299.9972       0.0049         0.48772296    -0.038615393    0.047354582   -631.37473      478.56286     -4877.2296      52.064488      50.060383      49.866863    
      5000   302.86167      0.005          0.58373853    -0.11456921     0             -167.18286     -1375.8687     -5837.3853      51.970459      50.151071      49.871825    
      5100   303.45889      0.0051         0.5157222     -0.02814874     0.068016331   -505.56247      533.51012     -5157.222       52.061038      50.03995       49.876787    
      5200   302.77207      0.0052         0.41360409     0.074411673    0.17013444     1460.7821      731.18455     -4136.0409      51.992253      50.075169      49.88175     
      5300   299.09843      0.0053         0.51274012    -0.025877953    0.070998413   -415.04498      837.92309     -5127.4012      52.073139      50.010547      49.886712    
      5400   300.12954      0.0054         0.5866811     -0.094658582    0              234.52686     -909.64595     -5866.811       51.968191      50.13454       49.891675    
      5500   299.12086      0.0055         0.57657245    -0.074051842    0.010108648   -473.44403      90.44306      -5765.7245      52.017657      50.083799      49.896637    
      5600   296.9637       0.0056         0.6068124     -0.084835908    0             -298.05966     -520.71214     -6068.124       52.025646      50.067086      49.901599    
      5700   301.08972      0.0057         0.55591299    -0.024627615    0.050899414    109.37486      157.31912     -5559.1299      52.02919       50.043262      49.906562    
      5800   298.43343      0.0058         0.51294572     0.022299532    0.093866676    767.06168      1198.5931     -5129.4572      51.993082      50.054563      49.911524    
      5900   298.9572       0.0059         0.62116748    -0.072577768    0              299.15457     -533.63383     -6211.6748      51.946258      50.122614      49.916486    
      6000   301.39695      0.006          0.66412109    -0.10749313     0             -1644.5783     -277.81132     -6641.2109      52.071564      50.030103      49.921449    
      6100   300.72644      0.0061         0.56977258    -0.0077395818   0.094348509    1349.2701     -14.085542     -5697.7258      51.954049      50.09448       49.926411    
      6200   300.15155      0.0062         0.60133141    -0.020525673    0.062789685   -225.77478      836.6132      -6013.3141      52.021431      50.025424      49.931374    
      6300   303.65096      0.0063         0.67430276    -0.077340765    0             -13.24125      -856.80461     -6743.0276      51.971497      50.098322      49.936336    
      6400   300.3586       0.0064         0.62947802    -0.028236329    0.044824744    180.95649      524.17665     -6294.7802      52.021127      50.027154      49.941298    
      6500   297.90833      0.0065         0.62809328    -0.021699509    0.046209481    392.97752      404.97316     -6280.9328      52.003387      50.04017       49.946261    
      6600   293.54965      0.0066         0.7556767     -0.1343965      0             -1282.7083     -1006.4808     -7556.767       52.027343      50.047905      49.951223    
      6700   300.48788      0.0067         0.72355385    -0.085509556    0.032122859   -659.20512     -816.56232     -7235.5385      51.987259      50.071744      49.956185    
      6800   296.54111      0.0068         0.61422512     0.033947112    0.14145159     942.54838      788.11396     -6142.2512      51.955486      50.061579      49.961148    
      6900   304.37101      0.0069         0.66968938    -0.016664958    0.085987326    241.20805      777.51511     -6696.8938      52.017941      50.009575      49.96611     
      7000   299.36829      0.007          0.75439838    -0.09234623     0.0012783256  -248.0411      -699.84737     -7543.9838      52.019703      50.023795      49.971072    
      7100   300.70956      0.0071         0.80632345    -0.12061621     0             -1339.1095     -334.84047     -8063.2345      52.046398      50.011007      49.976035    
      7200   294.03141      0.0072         0.74944959    -0.048930536    0.056873857    416.52778     -688.30729     -7494.4959      51.919424      50.104418      49.980997    
      7300   300.35211      0.0073         0.68729737     0.014521142    0.11902607     548.44197      1152.3784     -6872.9737      51.994125      49.998104      49.98596     
      7400   298.29786      0.0074         0.72255172    -0.011425838    0.083771724    871.30901      66.411416     -7225.5172      51.982245      50.027427      49.990922    
      7500   302.81461      0.0075         0.80045372    -0.072091796    0.0058697225  -725.72858      164.88837     -8004.5372      52.027271      49.992942      49.995884    
      7600   298.83589      0.0076         0.81444666    -0.080207741    0              102.14401     -662.73906     -8144.4666      51.944631      50.072772      50.000847    
      7700   304.75099      0.0077         0.80817382    -0.065472902    0.006272841   -276.7564      -198.48179     -8081.7382      51.976029      50.040384      50.005809    
      7800   303.56836      0.0078         0.76256744    -0.005032283    0.051879228    344.69323      538.97233     -7625.6744      51.981081      50.011623      50.010771    
      7900   296.97573      0.0079         0.78024875    -0.011657661    0.034197912    541.696        480.49059     -7802.4875      51.979529      50.004601      50.015734    
      8000   301.59288      0.008          0.83489616    -0.058255292    0             -261.03746     -232.77727     -8348.9616      51.974064      50.025097      50.020696    
      8100   303.95714      0.0081         0.83168167    -0.052504975    0.003214495    11.8288       -141.97068     -8316.8167      51.95159       50.035615      50.025659    
      8200   295.38337      0.0082         0.82617469    -0.039325485    0.0087214745   150.06571      147.1838      -8261.7469      51.950197      50.027361      50.030621    
      8300   302.08363      0.0083         0.91067967    -0.10149224     0             -684.77223     -715.53448     -9106.7967      51.992064      50.015845      50.035583    
      8400   303.11934      0.0084         0.92028943    -0.091328227    0             -661.39696     -562.1287      -9202.8943      51.995007      50.001125      50.040546    
      8500   297.31985      0.0085         0.75727875     0.067364953    0.16301068     1632.3566      1587.9487     -7572.7875      51.933809      49.99459       50.045508    
      8600   300.57024      0.0086         0.82581499    -3.4453848e-05  0.094474438    872.60502      761.86573     -8258.1499      51.917991      50.029478      50.05047     
      8700   296.05387      0.0087         1.0303275     -0.18233159     0             -1694.54       -1839.0528     -10303.275      51.96842       50.038078      50.055433    
      8800   299.62605      0.0088         0.98450872    -0.11431869     0.045818775   -1123.818      -857.17117     -9845.0872      51.997337      49.994041      50.060395    
      8900   300.50678      0.0089         0.82547979     0.049233346    0.2048477      1276.5556      1244.0808     -8254.7979      51.940608      49.983185      50.065358    
      9000   302.7026       0.009          0.84329497     0.032258045    0.18703252     878.86173      910.64894     -8432.9497      51.914486      50.013527      50.07032     
      9100   297.5856       0.0091         0.95793928    -0.069760503    0.072388211   -252.2314      -102.86987     -9579.3928      51.938629      50.022802      50.075282    
      9200   298.92684      0.0092         1.0619654     -0.15020755     0             -852.10465     -1278.2511     -10619.654      51.956915      50.023825      50.080245    
      9300   299.79722      0.0093         0.9710313     -0.053238291    0.090934094   -287.96707     -263.43931     -9710.313       51.968339      49.991808      50.085207    
      9400   304.52292      0.0094         0.89122823     0.023658666    0.17073717     908.96703      532.68839     -8912.2823      51.902324      50.016821      50.090169    
      9500   301.65807      0.0095         0.91413687     0.016435829    0.14782852     564.55491      789.08052     -9141.3687      51.911619      50.001212      50.095132    
      9600   297.84511      0.0096         1.0002838     -0.052264256    0.061681551   -134.04656     -135.60061     -10002.838      51.935556      50.001999      50.100094    
      9700   297.97495      0.0097         1.0578286     -0.10705889     0.0041368018  -1278.8871     -972.85282     -10578.286      51.968982      49.996227      50.105056    
      9800   294.53151      0.0098         1.078456      -0.11829159     0             -1036.4989     -455.85344     -10784.56       51.959211      49.984463      50.110019    
      9900   297.56636      0.0099         0.96591101     0.0082965394   0.112545       935.91117      388.30716     -9659.1101      51.877684      50.022853      50.114981    
     10000   296.76284      0.01           0.93054609     0.052386575    0.14790993     963.5476       1623.352      -9305.4609      51.925388      49.959811      50.119944    
     10100   296.65876      0.0101         1.1198061     -0.12068674     0             -531.36252     -1007.646      -11198.061      51.934906      50.001143      50.124906    
     10200   301.04152      0.0102         1.1842374     -0.17289085     0             -1830.3723     -1022.3146     -11842.374      51.99267       49.965972      50.129868    
     10300   303.85875      0.0103         1.086005      -0.063161111    0.098232366    161.81457     -686.67207     -10860.05       51.887879      50.031279      50.134831    
     10400   302.8772       0.0104         1.0679677     -0.027449822    0.11626971     96.904993      717.13582     -10679.677      51.91745       49.969249      50.139793    
     10500   299.49326      0.0105         1.0194594      0.031590724    0.164778       1666.8999      969.76301     -10194.594      51.868644      49.986504      50.144755    
     10600   302.64309      0.0106         1.0765797     -0.01790002     0.10765767     59.401515      683.46827     -10765.797      51.937195      49.951168      50.149718    
     10700   303.7521       0.0107         1.1751076     -0.10469999     0.0091297988  -914.38647     -984.83351     -11751.076      51.929951      49.992764      50.15468     
     10800   298.97497      0.0108         1.1558203     -0.077676264    0.028417101   -403.31903     -667.35707     -11558.203      51.911564      49.984011      50.159643    
     10900   301.69773      0.0109         1.1246375     -0.030620796    0.059599923    190.32314      485.81173     -11246.375      51.913298      49.957859      50.164605    
     11000   302.79797      0.011          1.0655838      0.041936632    0.11865358     1457.1612      839.83886     -10655.838      51.857743      49.988491      50.169567    
     11100   305.13875      0.0111         1.1087494     -0.0023345872   0.075488031    180.12963      970.81037     -11087.494      51.93765       49.920026      50.17453     
     11200   296.9977       0.0112         1.1855139     -0.078971506    0              564.48682     -246.08564     -11855.139      51.891601      49.971913      50.179492    
     11300   295.05329      0.0113         1.2377854     -0.11606497     0             -1049.2572     -81.64933      -12377.854      51.94803       49.941386      50.184454    
     11400   300.26918      0.0114         1.2679608     -0.12624104     0             -697.5306      -1703.5164     -12679.608      51.873015      50.025558      50.189417    
     11500   301.8307       0.0115         1.1814603     -0.023540452    0.08650049    -399.27342      592.55975     -11814.603      51.947336      49.919328      50.194379    
     11600   296.86706      0.0116         1.1114575      0.04995017     0.15650334     1847.4962      901.14044     -11114.575      51.861015      49.963223      50.199342    
     11700   298.14723      0.0117         1.2248747     -0.058490372    0.043086079   -152.3463       392.40789     -12248.747      51.930116      49.919236      50.204304    
     11800   301.29447      0.0118         1.3193834     -0.13664276     0             -683.72658     -1657.2611     -13193.834      51.880784      50.008512      50.209266    
     11900   296.07694      0.0119         1.2950226     -0.095243367    0.024360885   -706.88445     -153.8854      -12950.226      51.933679      49.936426      50.214229    
     12000   296.90367      0.012          1.2797138     -0.058521635    0.039669616   -166.74657     -368.85419     -12797.138      51.902898      49.945228      50.219191    
     12100   302.13976      0.0121         1.2120615      0.019461868    0.1073219      775.61293      493.84819     -12120.615      51.887195      49.938114      50.224153    
     12200   300.33988      0.0122         1.2496891     -0.011748162    0.069694355    190.89186      1086.2692     -12496.891      51.910518      49.913699      50.229116    
     12300   301.67143      0.0123         1.3647134     -0.11407969     0             -308.69614     -1409.2569     -13647.134      51.851074      49.999379      50.234078    
     12400   299.53343      0.0124         1.3358941     -0.078467005    0.028819362   -1200.822      -309.19675     -13358.941      51.930125      49.920786      50.239041    
     12500   299.35467      0.0125         1.2959129     -0.027040629    0.068800478    865.7912      -172.66653     -12959.129      51.855013      49.961562      50.244003    
     12600   302.7791       0.0126         1.2581316      0.025408115    0.10658181     265.77378      1607.6918     -12581.316      51.948073      49.856069      50.248965    
     12700   300.3704       0.0127         1.3288204     -0.034886066    0.035893068    571.04381     -810.54059     -13288.204      51.824667      49.990352      50.253928    
     12800   295.9438       0.0128         1.3610406     -0.062940573    0.0036728476  -1046.8536     -236.34296     -13610.406      51.900639      49.930524      50.25889     
     12900   298.47886      0.0129         1.3515832     -0.047827103    0.013130258    177.63252     -225.34584     -13515.832      51.870655      49.942084      50.263852    
     13000   297.87859      0.013          1.3406263     -0.030778999    0.024087115   -150.60965      204.95162     -13406.263      51.898326      49.904326      50.268815    
     13100   301.19941      0.0131         1.3173869      0.0029929816   0.047326564    633.77206      167.77121     -13173.869      51.840179      49.950144      50.273777    
     13200   299.82821      0.0132         1.3206333      0.0068410006   0.044080168    357.59212      867.97687     -13206.333      51.879666      49.910782      50.278739    
     13300   302.01771      0.0133         1.473841      -0.13545396     0             -926.37838     -1361.9958     -14738.41       51.877809      49.942129      50.283702    
     13400   297.46236      0.0134         1.4441157     -0.094906496    0.0297253     -695.27126     -435.92394     -14441.157      51.911713      49.896882      50.288664    
     13500   299.02692      0.0135         1.3327281      0.020162576    0.14111286     1341.5796      1569.3738     -13327.281      51.855258      49.896347      50.293627    
     13600   296.91793      0.0136         1.3652866     -0.0016803936   0.10855439     1019.06        723.81453     -13652.866      51.816319      49.944236      50.298589    
     13700   301.63946      0.0137         1.5463424     -0.16098397     0             -2192.2831     -1577.1357     -15463.424      51.919285      49.915143      50.303551    
     13800   299.14896      0.0138         1.5149051     -0.1141603      0.031437216   -800.82161     -1193.5445     -15149.051      51.900497      49.910458      50.308514    
     13900   299.29513      0.0139         1.4133847     -0.0064597045   0.13295766     528.60264      1078.8724     -14133.847      51.890286      49.863864      50.313476    
     14000   304.89393      0.014          1.4253363     -0.0099402796   0.12100609     1020.5127      466.55018     -14253.363      51.811859      49.937935      50.318438    
     14100   302.75742      0.0141         1.4471573     -0.01878427     0.099185051    524.29886      872.67842     -14471.573      51.85952       49.891997      50.323401    
     14200   296.37326      0.0142         1.5240531     -0.075338117    0.022289215    68.506186     -461.52734     -15240.531      51.853823      49.917966      50.328363    
     14300   300.08622      0.0143         1.5865859     -0.12659635     0             -1748.2143     -1232.4959     -15865.859      51.918232      49.889164      50.333326    
     14400   301.20676      0.0144         1.5662347     -0.094033258    0.020351195   -771.70048     -1632.1113     -15662.347      51.856026      49.938858      50.338288    
     14500   301.95525      0.0145         1.4207927      0.060215184    0.16579318     1187.3731      2058.807      -14207.927      51.845245      49.858933      50.34325     
     14600   301.79665      0.0146         1.3662102      0.11489006     0.2203757      2968.0982      1752.093      -13662.102      51.762273      49.917462      50.348213    
     14700   300.07633      0.0147         1.5874146     -0.10220719     0             -1319.9519     -548.99777     -15874.146      51.895502      49.880403      50.353175    
     14800   294.60035      0.0148         1.5980668     -0.10454317     0             -871.72247     -961.02212     -15980.668      51.874684      49.899218      50.358137    
     14900   296.71411      0.0149         1.5622868     -0.053872941    0.035780024   -140.954       -176.73768     -15622.868      51.85334       49.892458      50.3631      
     15000   297.23852      0.015          1.6381407     -0.10844644     0             -839.15916     -655.19992     -16381.407      51.831963      49.91455       50.368062    
     15100   297.6641       0.0151         1.5337351      0.0046169294   0.10440559     828.82554      364.53405     -15337.351      51.81191       49.901133      50.373025    
     15200   302.99606      0.0152         1.494302       0.041074959    0.14383873     1305.8181      1616.6263     -14943.02       51.849344      49.835831      50.377987    
     15300   301.7369       0.0153         1.5773451     -0.042892236    0.060795614    101.40607      111.99851     -15773.451      51.824321      49.895054      50.382949    
     15400   304.60648      0.0154         1.6841307     -0.13788821     0             -1335.6805     -1064.612      -16841.307      51.837972      49.923961      50.387912    
     15500   300.49456      0.0155         1.7137773     -0.13823637     0             -437.95193     -1112.6855     -17137.773      51.814934      49.923422      50.392874    
     15600   297.2671       0.0156         1.6019779     -0.0028601699   0.11179943     646.06293      1244.9479     -16019.779      51.865526      49.822795      50.397836    
     15700   305.5499       0.0157         1.5960219      0.003956535    0.11775541     1237.2323      990.07799     -15960.219      51.816988      49.864819      50.402799    
     15800   300.22952      0.0158         1.6922906     -0.082889773    0.021486726   -395.83528     -419.14612     -16922.906      51.801644      49.916374      50.407761    
     15900   304.36971      0.0159         1.7504758     -0.12225612     0             -930.96986     -1179.0723     -17504.758      51.799778      49.934217      50.412723    
     16000   296.73414      0.016          1.6585672     -0.028304832    0.091908643    57.976709      372.3692      -16585.672      51.859649      49.837435      50.417686    
     16100   296.56612      0.0161         1.6832499     -0.038036054    0.067225945    549.84801      272.16769     -16832.499      51.826991      49.851938      50.422648    
     16200   302.28406      0.0162         1.7183398     -0.050722206    0.032136009   -167.44858     -146.89796     -17183.398      51.792989      49.907905      50.427611    
     16300   297.82517      0.0163         1.6890002     -0.010217094    0.06147561     394.0047       26.375956     -16890.002      51.765159      49.917428      50.432573    
     16400   296.53393      0.0164         1.7342923     -0.050493025    0.016183515   -186.78486      246.5911      -17342.923      51.840908      49.83961       50.437535    
     16500   302.91296      0.0165         1.7680294     -0.078804913    0             -371.01665     -350.08983     -17680.294      51.863926      49.831766      50.442498    
     16600   298.57883      0.0166         1.7352556     -0.032703356    0.03277378    -2.2258024     -314.76529     -17352.556      51.797989      49.89218       50.44746     
     16700   296.87711      0.0167         1.7642921     -0.044912814    0.0037372999  -359.05651     -93.513218     -17642.921      51.787738      49.891255      50.452422    
     16800   300.74344      0.0168         1.7702489     -0.043073769    0              302.34156     -556.42851     -17702.489      51.768574      49.901586      50.457385    
     16900   299.1589       0.0169         1.7588113     -0.030802595    0.01143763    -744.799        815.32797     -17588.113      51.898847      49.76846       50.462347    
     17000   303.62339      0.017          1.7461857     -0.0094151673   0.024063207    1164.5547     -203.36917     -17461.857      51.774046      49.876258      50.46731     
     17100   297.85295      0.0171         1.7832545     -0.036483506    0             -158.14216      846.86163     -17832.545      51.816769      49.833072      50.472272    
     17200   295.82833      0.0172         1.8726015     -0.11040437     0              36.755893     -878.57825     -18726.015      51.760784      49.906884      50.477234    
     17300   296.64964      0.0173         1.8680718     -0.087967526    0.004529679   -1137.2971     -593.9414      -18680.718      51.841284      49.839953      50.482197    
     17400   303.4521       0.0174         1.8075619     -0.020130636    0.065039609   -9.5470681     -83.585943     -18075.619      51.810106      49.837447      50.487159    
     17500   299.21205      0.0175         1.7790743      0.0094614486   0.093527202    1255.7455      890.76999     -17790.743      51.783857      49.832512      50.492121    
     17600   298.95651      0.0176         1.8429804     -0.043672186    0.029621087    295.03784      701.70522     -18429.804      51.789182      49.841196      50.497084    
     17700   299.02469      0.0177         1.9549947     -0.13661624     0             -800.543       -1465.671      -19549.947      51.770658      49.889835      50.502046    
     17800   299.43718      0.0178         1.9255685     -0.091658002    0.029426276   -1135.8581     -170.64208     -19255.685      51.86398       49.797558      50.507009    
     17900   297.91144      0.0179         1.8076288      0.03116338     0.1473659      1127.0243      504.53857     -18076.288      51.784697      49.830308      50.511971    
     18000   298.99539      0.018          1.878964      -0.026893919    0.076030772    186.25919      561.81016     -18789.64       51.784522      49.826269      50.516933    
     18100   303.33527      0.0181         1.9290235     -0.062376498    0.025971297    247.96558     -372.08157     -19290.235      51.73231       49.88409       50.521896    
     18200   299.15804      0.0182         1.9176761     -0.046521657    0.037318684   -242.8825       188.51327     -19176.761      51.828116      49.808591      50.526858    
     18300   303.53843      0.0183         1.9783579     -0.096174904    0             -512.01046     -525.62325     -19783.579      51.838337      49.798445      50.53182     
     18400   299.11875      0.0184         1.9550072     -0.05807968     0.023350692    71.275133     -151.24072     -19550.072      51.79276       49.822968      50.536783    
     18500   299.39703      0.0185         1.8774969      0.029272939    0.10086106     560.06159      1194.0698     -18774.969      51.77419       49.819289      50.541745    
     18600   305.47824      0.0186         1.999069      -0.076690362    0              9.8377918     -1018.3681     -19990.69       51.739998      49.886651      50.546707    
     18700   304.20559      0.0187         2.0122435     -0.084139943    0             -946.69169     -215.45846     -20122.435      51.846467      49.771921      50.55167     
     18800   298.04048      0.0188         1.9379784     -0.0086339096   0.074265037    974.9749       786.08491     -19379.784      51.790313      49.780759      50.556632    
     18900   300.48541      0.0189         1.9880726     -0.040683702    0.024170869    115.31978      720.59399     -19880.726      51.785765      49.809372      50.561595    
     19000   303.39761      0.019          2.0822123     -0.11449853     0             -536.29755     -1488.9361     -20822.123      51.722325      49.895867      50.566557    
     19100   301.78466      0.0191         1.9943679     -0.020119721    0.087844366    8.8407132      954.89466     -19943.679      51.802909      49.772143      50.571519    
     19200   298.72961      0.0192         1.9741002      0.0057904216   0.1081121      1197.9515      827.35675     -19741.002      51.759898      49.792469      50.576482    
     19300   303.86275      0.0193         2.0823365     -0.09204804     0             -547.62172     -324.98428     -20823.365      51.795683      49.803592      50.581444    
     19400   298.85928      0.0194         2.0911379     -0.087236416    0             -469.33008     -1004.6456     -20911.379      51.741081      49.855935      50.586406    
     19500   299.68936      0.0195         2.0282082     -0.009235512    0.062929774    308.46384      407.07915     -20282.082      51.74523       49.818968      50.591369    
     19600   296.20177      0.0196         2.0132551      0.0071361216   0.077882797    664.88633      852.44857     -20132.551      51.773456      49.783596      50.596331    
     19700   305.12348      0.0197         2.1473809     -0.1134759      0             -836.59068     -910.25767     -21473.809      51.797326      49.7942        50.601294    
     19800   299.69543      0.0198         2.1794079     -0.12136        0             -1275.2429     -961.36456     -21794.079      51.770437      49.822436      50.606256    
     19900   300.14652      0.0199         2.0269662      0.034971082    0.15244171     1104.3045      572.02118     -20269.662      51.666416      49.872346      50.611218    
     20000   302.50909      0.02           2.0337014      0.023384822    0.14570654     656.41486      1240.3592     -20337.014      51.751009      49.786007      50.616181    
     20100   297.71053      0.0201         2.1507343     -0.078011416    0.028673665   -158.60067     -752.76064     -21507.343      51.78478       49.778893      50.621143    
     20200   304.43119      0.0202         2.1894873     -0.095225747    0             -1060.4973     -2.6314692     -21894.873      51.823092      49.743721      50.626105    
     20300   299.55856      0.0203         2.0940437      0.0013885927   0.095443618    1086.0239      199.41605     -20940.437      51.67678       49.850256      50.631068    
     20400   301.74529      0.0204         2.1363409     -0.036388305    0.053146422   -158.69204      18.246218     -21363.409      51.730546      49.816454      50.63603     
     20500   300.61816      0.0205         2.1795713     -0.064482351    0.0099160668  -338.41034     -374.09807     -21795.713      51.775247      49.775419      50.640993    
     20600   299.44234      0.0206         2.1788513     -0.047202769    0.010636033    173.56938      80.351866     -21788.513      51.761074      49.761746      50.645955    
     20700   304.74456      0.0207         2.1697007     -0.035820216    0.019786603    404.08307      324.74569     -21697.007      51.708694      49.808676      50.650917    
     20800   299.6055       0.0208         2.1288905     -6.1707089e-05  0.06059686     994.56582      1105.731      -21288.905      51.695974      49.801234      50.65588     
     20900   299.38569      0.0209         2.1985825     -0.052592151    0              298.02214     -5.9140067     -21985.825      51.72498       49.801336      50.660842    
     21000   298.44548      0.021          2.3294996     -0.15392937     0             -2274.0082     -1500.5713     -23294.996      51.826938      49.755297      50.665804    
     21100   295.55424      0.0211         2.270692      -0.083126042    0.05880755    -561.29167     -955.6035      -22706.92       51.734766      49.798961      50.670767    
     21200   302.42305      0.0212         2.1546203      0.029458947    0.17487924     1516.5886      1434.2759     -21546.203      51.671968      49.801805      50.675729    
     21300   297.53117      0.0213         2.2040739     -0.0089915646   0.12542571     951.0119       963.93372     -22040.739      51.700904      49.788678      50.680691    
     21400   303.08128      0.0214         2.3245087     -0.11060963     0.0049908632  -797.46222     -773.28441     -23245.087      51.776098      49.758108      50.685654    
     21500   299.35443      0.0215         2.3021949     -0.076033496    0.027304631   -648.55257     -477.20305     -23021.949      51.757614      49.764845      50.690616    
     21600   293.8117       0.0216         2.2402957     -0.0079898296   0.089203855    237.55718      295.88794     -22402.957      51.683936      49.808772      50.695579    
     21700   304.27585      0.0217         2.3168641     -0.069841914    0.012635428    49.098555     -285.14427     -23168.641      51.685687      49.81603       50.700541    
     21800   300.85761      0.0218         2.2916451     -0.028347399    0.03785448    -65.140859      229.0126      -22916.451      51.755298      49.740123      50.705503    
     21900   297.6229       0.0219         2.2910468     -0.018502684    0.038452768    36.867424      115.24885     -22910.468      51.766225      49.718794      50.710466    
     22000   296.71637      0.022          2.3189089     -0.04742384     0.010590681    230.51681     -118.31701     -23189.089      51.701117      49.77759       50.715428    
     22100   300.82821      0.0221         2.3160345     -0.040015219    0.013465052    286.72566      413.02806     -23160.345      51.662933      49.810175      50.72039     
     22200   297.44663      0.0222         2.3390055     -0.04454766     0              559.96544     -210.47862     -23390.055      51.679147      49.798214      50.725353    
     22300   301.03488      0.0223         2.428231      -0.11135743     0             -1523.5581     -418.75975     -24282.31       51.822173      49.682411      50.730315    
     22400   303.43096      0.0224         2.3468597     -0.02775106     0.081371274    217.96733     -161.03027     -23468.597      51.721136      49.756843      50.735278    
     22500   297.19391      0.0225         2.308395       0.011333631    0.11983596     745.68438      896.55455     -23083.95       51.660079      49.784471      50.74024     
     22600   302.99728      0.0226         2.3852885     -0.051060575    0.042942477    37.208039     -228.68238     -23852.885      51.672139      49.794475      50.745202    
     22700   306.08181      0.0227         2.4003828     -0.057802993    0.027848197   -224.87457      34.249334     -24003.828      51.741955      49.726898      50.750165    
     22800   301.4699       0.0228         2.3826396     -0.030960409    0.045591328    273.81257      751.0546      -23826.396      51.729827      49.712337      50.755127    
     22900   293.53886      0.0229         2.4261842     -0.060991274    0.0020467202   2.5693041      84.28374      -24261.842      51.682117      49.765015      50.760089    
     23000   298.36574      0.023          2.4787532     -0.097575817    0             -783.74712     -785.70673     -24787.532      51.699268      49.780438      50.765052    
     23100   302.2488       0.0231         2.4759816     -0.078809491    0.0027716188  -280.2685      -642.0167      -24759.816      51.710715      49.759555      50.770014    
     23200   298.76439      0.0232         2.4152111     -0.010418456    0.06354209     336.08024      1000.3854     -24152.111      51.741863      49.686838      50.774977    
     23300   304.46636      0.0233         2.4496876     -0.042749227    0.029065658    884.52066      351.1842      -24496.876      51.661341      49.753681      50.779939    
     23400   299.26187      0.0234         2.4267622     -0.011833634    0.051990998    702.09849      867.54096     -24267.622      51.658773      49.754245      50.784901    
     23500   300.22517      0.0235         2.5103392     -0.07521621     0              51.034604     -165.90238     -25103.392      51.696188      49.751217      50.789864    
     23600   297.90878      0.0236         2.6468384     -0.1855604      0             -2278.2501     -1734.1314     -26468.384      51.78062       49.709173      50.794826    
     23700   301.21795      0.0237         2.5598308     -0.082608023    0.087007571   -615.66153     -846.53947     -25598.308      51.699427      49.75063       50.799788    
     23800   298.85232      0.0238         2.3821197      0.095051149    0.26471874     1744.3236      1720.3856     -23821.197      51.640143      49.741793      50.804751    
     23900   298.70457      0.0239         2.4986797     -0.014259358    0.14815869     515.32397      370.31156     -24986.797      51.666222      49.738889      50.809713    
     24000   300.63458      0.024          2.5911107     -0.095454579    0.055727719   -887.7136      -539.14618     -25911.107      51.725501      49.711058      50.814676    
     24100   300.8112       0.0241         2.5474209     -0.044620866    0.099417503    130.937        50.534285     -25474.209      51.695754      49.719631      50.819638    
     24200   297.97281      0.0242         2.5235333     -0.0099010468   0.12330511     492.15543      506.13825     -25235.333      51.667219      49.731079      50.8246      
     24300   295.8684       0.0243         2.6322546     -0.10036569     0.01458375    -857.80312     -756.69741     -26322.546      51.684921      49.739742      50.829563    
     24400   298.43687      0.0244         2.6083175     -0.058272988    0.038520931   -251.28235     -469.26687     -26083.175      51.696348      49.722267      50.834525    
     24500   298.51559      0.0245         2.5508455      0.0032495744   0.095992861    524.30888      1081.0746     -25508.455      51.712446      49.678901      50.839487    
     24600   302.0809       0.0246         2.6368657     -0.083767892    0.0099726609   235.40067     -357.20723     -26368.657      51.654004      49.74848       50.84445     
     24700   301.00079      0.0247         2.6617979     -0.098503378    0             -833.53626     -531.02683     -26617.979      51.676053      49.733219      50.849412    
     24800   302.69718      0.0248         2.5803715      0.0027481955   0.081426384    640.73692      526.47257     -25803.715      51.651595      49.723934      50.854374    
     24900   296.54854      0.0249         2.5430765      0.044482962    0.11872148     816.88891      1399.4322     -25430.765      51.696262      49.657629      50.859337    
     25000   299.40154      0.025          2.7195604     -0.11915604     0             -835.04406     -1068.0539     -27195.604      51.687718      49.727556      50.864299    
     25100   301.02873      0.0251         2.734715      -0.11558119     0             -1739.0653     -1545.3955     -27347.15       51.670911      49.756076      50.869262    
     25200   301.10305      0.0252         2.6185847      0.010054222    0.11613027     787.63469      643.76493     -26185.847      51.618542      49.731279      50.874224    
     25300   308.116        0.0253         2.5413045      0.078239392    0.19341045     1929.2107      2178.8009     -25413.045      51.655054      49.656989      50.879186    
     25400   302.0398       0.0254         2.6529707     -0.0289614      0.081744337    599.99404      589.18467     -26529.707      51.668002      49.6899        50.884149    
     25500   297.72813      0.0255         2.8002774     -0.15132497     0             -1581.2246     -1733.1982     -28002.774      51.666107      49.74236       50.889111    
     25600   298.20631      0.0256         2.7646245     -0.10289616     0.035652939   -885.32287     -1107.1354     -27646.245      51.664034      49.722489      50.894073    
     25700   303.09025      0.0257         2.6480351      0.012316901    0.15224228     593.27388      839.70836     -26480.351      51.682238      49.663725      50.899036    
     25800   301.44935      0.0258         2.6335257      0.032141765    0.16675173     1418.6641      1228.33       -26335.257      51.64454       49.674786      50.903998    
     25900   298.97616      0.0259         2.7147868     -0.031948334    0.08549059     884.42687      411.0148      -27147.868      51.634473      49.696804      50.908961    
     26000   304.1383       0.026          2.8498645     -0.15399559     0             -1173.9305     -1199.2036     -28498.645      51.673235      49.703835      50.913923    
     26100   300.09521      0.0261         2.760204      -0.061786231    0.08966046    -339.26171     -156.20377     -27602.04       51.660776      49.694504      50.918885    
     26200   296.32962      0.0262         2.7301411     -0.020567705    0.11972334     899.29332      538.66787     -27301.411      51.618838      49.711793      50.923848    
     26300   302.34643      0.0263         2.8063692     -0.070289299    0.043495285   -460.53043     -471.55802     -28063.692      51.651421      49.705517      50.92881     
     26400   299.02894      0.0264         2.8098352     -0.058068807    0.040029326   -456.4197      -445.21814     -28098.352      51.673567      49.676808      50.933772    
     26500   298.25156      0.0265         2.7444051      0.0017739917   0.10545935     571.66484      678.28077     -27444.051      51.639829      49.676743      50.938735    
     26600   301.19144      0.0266         2.8518211     -0.096922303    0             -505.24405     -517.45816     -28518.211      51.621182      49.720151      50.943697    
     26700   301.7235       0.0267         2.8235516     -0.051101153    0.028269504    444.75671      31.900052     -28235.516      51.605023      49.714545      50.94866     
     26800   296.94023      0.0268         2.7584203      0.026519555    0.093400747    796.9466       1299.2506     -27584.203      51.650786      49.640797      50.953622    
     26900   304.53718      0.0269         2.8783946     -0.077093937    0             -468.98066     -952.16866     -28783.946      51.625032      49.718414      50.958584    
     27000   298.54321      0.027          2.9003038     -0.093959153    0             -977.57052     -514.63482     -29003.038      51.632495      49.70202       50.963547    
     27100   301.84706      0.0271         2.8111118      0.00032359025  0.089191966    660.65029      121.22368     -28111.118      51.599892      49.698728      50.968509    
     27200   305.16941      0.0272         2.8065333      0.012541328    0.093770492    224.65153      1053.491      -28065.333      51.670603      49.632282      50.973471    
     27300   302.98563      0.0273         2.8437636     -0.020949535    0.056540192    750.19368      251.83466     -28437.636      51.605769      49.686541      50.978434    
     27400   298.82455      0.0274         2.9091838     -0.076434907    0             -299.90676     -223.89005     -29091.838      51.624137      49.685395      50.983396    
     27500   298.28766      0.0275         2.9797187     -0.12343849     0             -903.20576     -890.1218      -29797.187      51.628142      49.694353      50.988358    
     27600   303.68228      0.0276         2.8968126     -0.036033236    0.082906095    233.71671      309.11848     -28968.126      51.63024       49.663487      50.993321    
     27700   299.39941      0.0277         2.8547593      0.009140847    0.1249594      1095.9068      666.49726     -28547.593      51.604662      49.663014      50.998283    
     27800   295.80966      0.0278         2.9693112     -0.084321926    0.010407544   -203.58222     -413.22212     -29693.112      51.607911      49.679161      51.003246    
     27900   298.92619      0.0279         3.0000325     -0.10287948     0             -937.4812      -482.86014     -30000.325      51.646364      49.661608      51.008208    
     28000   299.54382      0.028          2.9330292     -0.032603563    0.067003376    615.67931     -233.0807      -29330.292      51.595028      49.686643      51.01317     
     28100   297.08868      0.0281         2.930987      -0.018573893    0.069045523   -260.89131      897.00286     -29309.87       51.641403      49.626391      51.018133    
     28200   301.44166      0.0282         3.0086543     -0.076029083    0              130.59552     -733.73702     -30086.543      51.574908      49.703468      51.023095    
     28300   298.98592      0.0283         2.9411345      0.0012278552   0.067519847   -439.66561      197.82008     -29411.345      51.635676      49.648088      51.028057    
     28400   305.03455      0.0284         2.9321578      0.012501889    0.076496477    668.68667      383.9972      -29321.578      51.594298      49.662876      51.03302     
     28500   299.7871       0.0285         2.973843      -0.02977082     0.034811345    369.20225      304.76152     -29738.43       51.598152      49.650526      51.037982    
     28600   298.86934      0.0286         3.0262259     -0.069212416    0             -303.34286     -345.28213     -30262.259      51.591889      49.676468      51.042945    
     28700   296.32924      0.0287         3.0304962     -0.05590901     0             -351.21421     -658.41472     -30304.962      51.589847      49.686819      51.047907    
     28800   299.51404      0.0288         3.0558609     -0.072618782    0             -894.39793      99.604088     -30558.609      51.642955      49.622911      51.052869    
     28900   300.77329      0.0289         3.0212334     -0.035871143    0.034627558    638.90851      35.935245     -30212.334      51.566389      49.674567      51.057832    
     29000   295.70455      0.029          3.008893      -0.015944426    0.04696789     166.34683      695.99353     -30088.93       51.596983      49.637245      51.062794    
     29100   296.83746      0.0291         3.1033398     -0.093155959    0             -270.48824     -495.56965     -31033.398      51.584813      49.668141      51.067756    
     29200   298.12283      0.0292         3.1179313     -0.096819721    0             -892.12372     -419.6274      -31179.313      51.625112      49.633418      51.072719    
     29300   301.95895      0.0293         3.0614144     -0.028274813    0.056516917    563.545        128.27614     -30614.144      51.566599      49.663188      51.077681    
     29400   298.88029      0.0294         3.0323402      0.010817636    0.085591133    287.44916      1077.761      -30323.402      51.596847      49.618208      51.082644    
     29500   296.55242      0.0295         3.1491484     -0.088460091    0              37.789876     -980.96372     -31491.484      51.566589      49.671636      51.087606    
     29600   301.19328      0.0296         3.2037444     -0.12530423     0             -1191.1393     -760.99981     -32037.444      51.624805      49.620824      51.092568    
     29700   302.08651      0.0297         3.0856324     -0.0016785673   0.11811204     907.88941      450.84052     -30856.324      51.544644      49.65831       51.097531    
     29800   302.7728       0.0298         3.0394869      0.042829492    0.1642575      1482.3035      1448.802      -30394.869      51.564899      49.617676      51.102493    
     29900   296.79825      0.0299         3.1875805     -0.088629367    0.016163923   -246.12532     -465.85592     -31875.805      51.58537       49.639545      51.107455    
     30000   300.29241      0.03           3.293709      -0.16627626     0             -1668.6834     -1217.749      -32937.09       51.631862      49.623515      51.112418    
     30100   302.00992      0.0301         3.1573465     -0.024513057    0.13636254     383.84282      219.69388     -31573.465      51.571636      49.638101      51.11738     
     30200   298.02067      0.0302         3.1040652      0.027381568    0.18964377     1402.1626      1168.0395     -31040.652      51.53322       49.639916      51.122342    
     30300   299.50032      0.0303         3.2256181     -0.077750901    0.068090938   -732.64116     -386.08074     -32256.181      51.596908      49.617948      51.127305    
     30400   297.5903       0.0304         3.2820396     -0.10920249     0.011669408   -800.83821     -1745.392      -32820.396      51.577224      49.659196      51.132267    
     30500   302.93879      0.0305         3.1659503      0.0085669875   0.1277587     -235.21255      1376.4192     -31659.503      51.629069      49.561245      51.13723     
     30600   305.30453      0.0306         3.1347547      0.032863595    0.15895428     2024.4726      402.92746     -31347.547      51.485743      49.670968      51.142192    
     30700   297.83808      0.0307         3.2469954     -0.063240802    0.046713575   -897.84869      448.72312     -32469.954      51.61567       49.578835      51.147154    
     30800   300.49733      0.0308         3.3006225     -0.090754302    0             -568.79336     -1701.1522     -33006.225      51.568238      49.653008      51.152117    
     30900   302.86438      0.0309         3.2398662     -0.024769473    0.060756258   -507.86564      336.14429     -32398.662      51.600932      49.587938      51.157079    
     31000   298.70849      0.031          3.1837625      0.020339622    0.11686001     1186.4469      767.17551     -31837.625      51.535739      49.617057      51.162041    
     31100   301.20963      0.0311         3.2040052      0.0047627399   0.096617246    725.08865      170.3031      -32040.052      51.541124      49.622401      51.167004    
     31200   300.95986      0.0312         3.2791277     -0.052853521    0.021494733   -606.45599      25.084488     -32791.277      51.593313      49.592724      51.171966    
     31300   297.67827      0.0313         3.3258816     -0.089581032    0             -639.26367     -877.03937     -33258.816      51.561844      49.624613      51.176929    
     31400   300.83107      0.0314         3.2624577     -0.028115353    0.063423863    284.48857      538.32199     -32624.577      51.574262      49.578152      51.181891    
     31500   301.95188      0.0315         3.2332165      0.007852537    0.092665136    1109.548       691.46756     -32332.165      51.542722      49.608056      51.186853    
     31600   303.42794      0.0316         3.3728631     -0.10798323     0             -1015.1749     -170.14335     -33728.631      51.603815      49.575035      51.191816    
     31700   301.41251      0.0317         3.3636826     -0.087134078    0.009180427    322.55897     -1114.775      -33636.826      51.514853      49.650941      51.196778    
     31800   300.5389       0.0318         3.2797255     -0.005266667    0.093137531    220.86013      1420.6372     -32797.255      51.591961      49.547893      51.20174     
     31900   303.63281      0.0319         3.3976411     -0.10740473     0              181.39784     -915.99111     -33976.411      51.518176      49.645084      51.206703    
     32000   299.07256      0.032          3.3925937     -0.081474248    0.0050473522  -1110.2899      285.2111      -33925.937      51.605866      49.551228      51.211665    
     32100   299.27574      0.0321         3.3196592      0.0030256781   0.077981881    1431.0258      377.32571     -33196.592      51.499681      49.619963      51.216628    
     32200   298.30476      0.0322         3.372551      -0.040523822    0.025090051   -117.28493      248.91917     -33725.51       51.563783      49.58039       51.22159     
     32300   302.32479      0.0323         3.4813723     -0.13379605     0             -1194.4344     -1714.9656     -34813.723      51.544305      49.636087      51.226552    
     32400   299.05123      0.0324         3.4004443     -0.039069326    0.080928071    452.57364      108.25118     -34004.443      51.517162      49.60482       51.231515    
     32500   297.11462      0.0325         3.3137477      0.055680328    0.1676246      1458.7549      1774.2064     -33137.477      51.525982      49.558724      51.236477    
     32600   304.97323      0.0326         3.425284      -0.050613792    0.056088391    30.279898     -500.00757     -34252.84       51.529298      49.605493      51.241439    
     32700   298.0728       0.0327         3.4739651     -0.088266672    0.0074072692  -1420.3598     -533.34197     -34739.651      51.572266      49.579868      51.246402    
     32800   295.05941      0.0328         3.4814753     -0.075601917    0              248.74044     -931.75504     -34814.753      51.48602       49.64635       51.251364    
     32900   303.43215      0.0329         3.4554353     -0.043782541    0.026039951   -137.23663      807.96528     -34554.353      51.567833      49.550151      51.256326    
     33000   300.54058      0.033          3.4753154     -0.055390424    0.0061599023   711.28383     -174.80741     -34753.154      51.499208      49.607923      51.261289    
     33100   302.93428      0.0331         3.447706      -0.014976377    0.033769268    350.43811      1056.7293     -34477.06       51.553551      49.543996      51.266251    
     33200   302.18217      0.0332         3.5121083     -0.065422969    0              560.51502     -806.74979     -35121.083      51.461337      49.650729      51.271214    
     33300   299.19095      0.0333         3.6584755     -0.19407977     0             -2651.8106     -1113.9254     -36584.755      51.593719      49.567482      51.276176    
     33400   298.90969      0.0334         3.5048087     -0.029976563    0.15366677     452.81406     -430.65974     -35048.087      51.507338      49.599192      51.281138    
     33500   300.54882      0.0335         3.398187       0.085089044    0.26028845     1585.936       1981.6834     -33981.87       51.531537      49.521931      51.286101    
     33600   294.10063      0.0336         3.5484546     -0.052861494    0.11002084    -147.41559     -28.706251     -35484.546      51.51715       49.578401      51.291063    
     33700   299.25976      0.0337         3.6284836     -0.11743865     0.029991836   -1094.4131     -1604.5101     -36284.836      51.509146      49.624953      51.296025    
     33800   300.76692      0.0338         3.5654439     -0.046002048    0.093031574   -292.12793     -134.57433     -35654.439      51.532607      49.56878       51.300988    
     33900   297.18196      0.0339         3.5203273      0.005603694    0.13814812     1047.7579      531.49771     -35203.273      51.490791      49.568811      51.30595     
     34000   298.90165      0.034          3.5494655     -0.016119418    0.10901       -316.07126      704.46534     -35494.655      51.538923      49.535898      51.310913    
     34100   301.0692       0.0341         3.6261551     -0.074964181    0.032320321   -190.21185     -1355.5259     -36261.551      51.461428      49.635975      51.315875    
     34200   297.67304      0.0342         3.5977805     -0.038022323    0.060694963   -986.94789      25.782884     -35977.805      51.544326      49.546529      51.320837    
     34300   298.99157      0.0343         3.5315121      0.015549728    0.12696335     1111.4465      434.09539     -35315.121      51.485594      49.572049      51.3258      
     34400   297.21186      0.0344         3.6054477     -0.048321947    0.053027775    123.23189      575.63714     -36054.477      51.520974      49.53644       51.330762    
     34500   299.13839      0.0345         3.6843652     -0.098621685    0             -481.87602     -1073.5062     -36843.652      51.482957      49.600286      51.335724    
     34600   301.21444      0.0346         3.6264929     -0.032945527    0.057872328   -205.69052     -10.464069     -36264.929      51.506637      49.564131      51.340687    
     34700   299.86906      0.0347         3.5877721      0.0017041024   0.096593105    213.02084      832.0341      -35877.721      51.520078      49.5178        51.345649    
     34800   301.67986      0.0348         3.5907083      0.0012943695   0.093656929    906.43003      132.13136     -35907.083      51.481168      49.554823      51.350612    
     34900   303.56602      0.0349         3.6491762     -0.044288664    0.035189006   -636.65381      262.34465     -36491.762      51.527345      49.539848      51.355574    
     35000   300.30625      0.035          3.7200507     -0.098104588    0             -592.79545     -1647.0078     -37200.507      51.461419      49.618083      51.360536    
     35100   298.09179      0.0351         3.7169004     -0.085879797    0.0031502619  -884.19594      110.97434     -37169.004      51.558208      49.49748       51.365499    
     35200   305.09528      0.0352         3.5920664      0.038382819    0.12798429     1683.8128      649.14313     -35920.664      51.474393      49.535817      51.370461    
     35300   302.59134      0.0353         3.6245115      0.015237637    0.095539165    208.01362      1224.0632     -36245.115      51.512663      49.506987      51.375423    
     35400   300.87897      0.0354         3.7477184     -0.093742146    0             -355.34116     -1029.8311     -37477.184      51.447033      49.602048      51.380386    
     35500   296.37698      0.0355         3.769841      -0.10731721     0             -407.64007     -347.51372     -37698.41       51.48935       49.548982      51.385348    
     35600   301.66633      0.0356         3.68921       -0.020414449    0.080631058    356.90935      984.21499     -36892.1        51.51797       49.495821      51.39031     
     35700   299.64601      0.0357         3.682771      -0.0044756381   0.087069979    1231.6887      604.1703      -36827.71       51.462937      49.536507      51.395273    
     35800   300.60078      0.0358         3.8155743     -0.11479227     0             -1113.8476     -200.02652     -38155.743      51.518386      49.519109      51.400235    
     35900   297.40488      0.0359         3.8303013     -0.11140682     0             -299.84846     -1550.9435     -38303.013      51.438465      49.605022      51.405198    
     36000   299.44279      0.036          3.7410797     -0.020082268    0.089221652    12.813661      1477.8094     -37410.797      51.531799      49.4757        51.41016     
     36100   297.85515      0.0361         3.7927148     -0.064135941    0.037586545    618.34466     -476.12719     -37927.148      51.449421      49.564251      51.415122    
     36200   299.98962      0.0362         3.8722818     -0.11568141     0             -1563.8832     -867.328       -38722.818      51.514601      49.52126       51.420085    
     36300   301.41942      0.0363         3.7770038     -0.0051542149   0.095277965    624.1886       269.3491      -37770.038      51.449612      49.547557      51.425047    
     36400   303.53185      0.0364         3.6959349      0.07073639     0.17634692     1516.5776      1524.1583     -36959.349      51.463088      49.505209      51.430009    
     36500   301.91245      0.0365         3.8819583     -0.10407534     0             -598.79486     -596.60569     -38819.583      51.47294       49.537642      51.434972    
     36600   300.11948      0.0366         3.9078665     -0.10811784     0             -1161.0435     -1101.6517     -39078.665      51.490154      49.539307      51.439934    
     36700   300.85301      0.0367         3.8153499     -0.0023433908   0.092516559    586.47091      608.79403     -38153.499      51.457391      49.524427      51.444897    
     36800   301.45959      0.0368         3.8122553      0.00041935665  0.095611207    871.46177      1173.2636     -38122.553      51.470712      49.491822      51.449859    
     36900   301.44949      0.0369         3.8707852     -0.054062153    0.037081314    341.56966     -395.717       -38707.852      51.461678      49.524881      51.454821    
     37000   299.29442      0.037          3.8952142     -0.063077756    0.012652256   -1117.1595     -267.95947     -38952.142      51.513546      49.49702       51.459784    
     37100   299.53997      0.0371         3.9724774     -0.12236466     0             -579.87583     -1637.5512     -39724.774      51.419656      49.594396      51.464746    
     37200   297.75717      0.0372         3.8863034     -0.034788529    0.086173966    142.87595      585.49837     -38863.034      51.466841      49.500725      51.469708    
     37300   300.26976      0.0373         3.8474641      0.011096793    0.12501326     1406.0148      1273.1291     -38474.641      51.466347      49.463395      51.474671    
     37400   303.34143      0.0374         3.8915494     -0.013427006    0.080928009    233.66272      242.70247     -38915.494      51.470275      49.496231      51.479633    
     37500   301.16975      0.0375         3.9277272     -0.04502795     0.044750177   -549.63923     -342.63439     -39277.272      51.458118      49.522959      51.484596    
     37600   295.25354      0.0376         3.9445026     -0.058139735    0.027974779    193.37246     -485.75515     -39445.026      51.421654      49.547685      51.489558    
     37700   303.07665      0.0377         3.9741561     -0.071912594    0             -536.1275       72.445132     -39741.561      51.502995      49.468818      51.49452     
     37800   304.03943      0.0378         3.9161704     -0.0035354175   0.057985662    871.1499      -159.70666     -39161.704      51.43116       49.52257       51.499483    
     37900   301.50393      0.0379         3.9020409      0.013719643    0.072115145    290.22294      1285.3782     -39020.409      51.482383      49.453075      51.504445    
     38000   298.6816       0.038          3.9835854     -0.058987678    0              709.47259     -402.99773     -39835.854      51.399421      49.54281       51.509407    
     38100   299.54089      0.0381         4.0555901     -0.12268116     0             -1254.1978     -127.92987     -40555.901      51.500622      49.477367      51.51437     
     38200   295.31725      0.0382         4.0058126     -0.060952734    0.049777509   -525.13453     -1022.4693     -40058.126      51.443454      49.528706      51.519332    
     38300   300.94022      0.0383         3.9984287     -0.038472343    0.057161444   -276.30062      35.745094     -39984.287      51.481855      49.468281      51.524295    
     38400   296.74693      0.0384         3.9877155     -0.018142512    0.067874665    681.92789      175.50832     -39877.155      51.421661      49.499756      51.529257    
     38500   303.68291      0.0385         4.0281853     -0.04856656     0.027404806   -781.67419     -134.30296     -40281.853      51.460891      49.486058      51.534219    
     38600   303.07891      0.0386         3.9770889      0.0057884381   0.078501168    853.53238     -187.07588     -39770.889      51.388537      49.52764       51.539182    
     38700   302.24078      0.0387         3.9382786      0.041011031    0.11731151     1220.8416      2137.1065     -39382.786      51.477086      49.406189      51.544144    
     38800   307.52227      0.0388         4.037651      -0.04621326     0.017939161   -29.943578     -481.8441      -40376.51       51.456271      49.478592      51.549106    
     38900   298.75101      0.0389         4.0984459     -0.087367746    0             -1058.9479     -1053.2944     -40984.459      51.438353      49.513976      51.554069    
     39000   296.25216      0.039          4.0520058     -0.034085529    0.046440176    79.582465      261.11743     -40520.058      51.403804      49.512564      51.559031    
     39100   301.27865      0.0391         4.0418881     -0.025338052    0.056557855    676.87291      229.22193     -40418.881      51.407951      49.496419      51.563993    
     39200   304.80474      0.0392         4.102103      -0.07592391     0             -793.4404      -8.2792563     -41021.03       51.485025      49.441399      51.568956    
     39300   301.67904      0.0393         4.0820123     -0.047474901    0.020090643    565.21386     -32.22006      -40820.123      51.400215      49.495215      51.573918    
     39400   298.13836      0.0394         4.0565888     -0.015163989    0.045514224    472.28616      697.90734     -40565.888      51.389221      49.493791      51.578881    
     39500   301.54047      0.0395         4.0967367     -0.048456807    0.0053662655   252.53841     -436.20784     -40967.367      51.397741      49.510444      51.583843    
     39600   298.03593      0.0396         4.1417393     -0.076994325    0             -718.01206      161.07696     -41417.393      51.48509       49.422173      51.588805    
[...]
     75900   299.2316       0.0759         7.2216988     -0.04103814     0.043309313   -207.54147     -57.956303     -72216.988      50.88623       48.945994      53.390146    
     76000   301.77492      0.076          7.2110904     -0.017030812    0.053917696    801.54944      710.15432     -72110.904      50.870292      48.941783      53.395108    
     76100   298.43379      0.0761         7.2204185     -0.016144584    0.044589618   -21.746231      12.595716     -72204.185      50.873785      48.959447      53.400071    
     76200   301.34615      0.0762         7.2996614     -0.081200054    0             -1117.4195     -989.39268     -72996.614      50.876361      48.980206      53.405033    
     76300   293.07982      0.0763         7.235681      -0.014270717    0.063980373    824.36886      356.60195     -72356.81       50.840231      48.964593      53.409995    
     76400   299.85777      0.0764         7.241594      -0.022525068    0.058067436    328.25983      693.72517     -72415.94       50.874247      48.93278       53.414958    
     76500   301.81372      0.0765         7.2673646     -0.041761314    0.032296804   -575.16458     -488.53821     -72673.646      50.886005      48.950078      53.41992     
     76600   308.04168      0.0766         7.2715459     -0.03436931     0.028115522    280.66123     -91.223995     -72715.459      50.832315      48.983403      53.424882    
     76700   299.78808      0.0767         7.2561119     -0.011358102    0.043549528    247.78017      464.79963     -72561.119      50.845287      48.959978      53.429845    
     76800   294.8218       0.0768         7.2435475      0.0033238367   0.05611384     39.970075      52.09592      -72435.475      50.855635      48.953184      53.434807    
     76900   302.63555      0.0769         7.3134912     -0.057440551    0             -827.77419     -716.27552     -73134.912      50.876992      48.95489       53.43977     
     77000   299.9373       0.077          7.2765734     -0.013974484    0.036917765   -9.7060039     -160.31447     -72765.734      50.841519      48.965014      53.444732    
     77100   298.53674      0.0771         7.2188649      0.043578694    0.094626303    1443.2214      1372.046      -72188.649      50.816352      48.940595      53.449694    
     77200   305.09071      0.0772         7.3202222     -0.055722511    0             -200.60201      83.099013     -73202.222      50.867303      48.933382      53.454657    
     77300   303.20206      0.0773         7.3834929     -0.1042121      0             -1465.768      -1603.4786     -73834.929      50.877269      48.961639      53.459619    
     77400   297.59316      0.0774         7.27672        0.0060734819   0.10677298     421.10632      1041.6207     -72767.2        50.862451      48.910049      53.464581    
     77500   297.48024      0.0775         7.2460194      0.034639519    0.13747354     2112.244       1256.6236     -72460.194      50.790787      48.950667      53.469544    
     77600   301.97257      0.0776         7.3531058     -0.064290907    0.030387119   -1311.42       -844.50317     -73531.058      50.889239      48.93211       53.474506    
     77700   298.70101      0.0777         7.4003219     -0.097085997    0             -1158.2678     -1627.3847     -74003.219      50.851018      48.97409       53.479469    
     77800   293.8358       0.0778         7.3196003     -0.0087590619   0.080721665    338.52264      741.43869     -73196.003      50.842896      48.923572      53.484431    
     77900   300.75041      0.0779         7.3391847     -0.02577417     0.061137203    1102.0469      360.68322     -73391.847      50.814951      48.943441      53.489393    
     78000   307.54346      0.078          7.3375479     -0.018039869    0.062774059    479.63177      547.1412      -73375.479      50.878464      48.883097      53.494356    
     78100   297.96958      0.0781         7.3122981      0.016553215    0.088023821    158.24372      425.14018     -73122.981      50.863114      48.905038      53.499318    
     78200   301.62743      0.0782         7.416407      -0.077937209    0             -630.80345     -1145.1062     -74164.07       50.821025      48.974388      53.50428     
     78300   299.6567       0.0783         7.3736851     -0.036196071    0.042721924   -342.29717     -18.036579     -73736.851      50.832047      48.939671      53.509243    
     78400   300.43043      0.0784         7.3303464      0.012505273    0.086060625    973.45725      470.56226     -73303.464      50.810995      48.935728      53.514205    
     78500   303.16108      0.0785         7.3715765     -0.016169128    0.044830515   -99.342074      510.35883     -73715.765      50.883887      48.882798      53.519168    
     78600   295.65462      0.0786         7.4380673     -0.074163821    0             -67.907995     -731.54254     -74380.673      50.846627      48.9268        53.52413     
     78700   300.06685      0.0787         7.4804499     -0.10853356     0             -1349.214      -703.29382     -74804.499      50.874159      48.914634      53.529092    
     78800   305.4011       0.0788         7.3964575     -0.016855447    0.083992389    159.03182     -450.79834     -73964.575      50.793448      48.970216      53.534055    
     78900   300.88491      0.0789         7.312619       0.064326479    0.16783089     1488.8846      1859.4078     -73126.19       50.822883      48.889286      53.539017    
     79000   296.19014      0.079          7.4115326     -0.027188695    0.068917236   -29.335733     -54.561145     -74115.326      50.838644      48.916655      53.543979    
     79100   300.40531      0.0791         7.5319479     -0.125639       0             -2190.0607     -1676.4066     -75319.479      50.881226      48.924888      53.548942    
     79200   295.86457      0.0792         7.4293607     -0.021756424    0.10258721     654.60486      96.226233     -74293.607      50.800064      48.934043      53.553904    
     79300   296.89861      0.0793         7.3690574      0.038084124    0.16289052     1695.2273      1431.0706     -73690.574      50.781132      48.913644      53.558866    
     79400   300.9091       0.0794         7.4831829     -0.060757726    0.048765023   -1195.4661     -659.23485     -74831.829      50.862799      48.903173      53.563829    
     79500   303.21073      0.0795         7.4443968     -0.014689644    0.087551069    102.42594     -485.93404     -74443.968      50.824135      48.922718      53.568791    
     79600   297.01439      0.0796         7.4100922      0.016817505    0.12185573     491.63006      1116.433      -74100.922      50.836942      48.878283      53.573754    
     79700   296.3819       0.0797         7.5484276     -0.11472017     0             -277.16216     -810.19085     -75484.276      50.808196      48.929235      53.578716    
     79800   301.27848      0.0798         7.4870381     -0.044272566    0.06138954    -442.59268     -419.40468     -74870.381      50.824634      48.918472      53.583678    
     79900   301.48824      0.0799         7.3882602      0.062069476    0.16016746     1139.2713      1454.1538     -73882.602      50.816865      48.876178      53.588641    
     80000   303.5914       0.08           7.4235569      0.027975184    0.12487074     867.45762      425.04319     -74235.569      50.785065      48.919069      53.593603    
     80100   300.32832      0.0801         7.5697414     -0.11442996     0             -1361.5566     -1139.6873     -75697.414      50.828456      48.929902      53.598565    
     80200   293.96667      0.0802         7.5484682     -0.081245998    0.021273214   -168.91333     -720.13406     -75484.682      50.793167      48.93929       53.603528    
     80300   302.08103      0.0803         7.4930077     -0.013390523    0.076733656   -99.229514      230.88539     -74930.077      50.825258      48.89327       53.60849     
     80400   303.87904      0.0804         7.4342527      0.040471436    0.13548863     890.22339      722.46063     -74342.527      50.801065      48.892678      53.613453    
     80500   298.85056      0.0805         7.4849933     -0.0062094925   0.084748054    947.29192      1049.6549     -74849.933      50.784736      48.896662      53.618415    
     80600   296.86519      0.0806         7.618068      -0.11848654     0             -1359.588      -1362.2761     -76180.68       50.805341      48.940163      53.623377    
     80700   299.44985      0.0807         7.6065013     -0.1011125      0.01156668    -1057.6326     -1437.4448     -76065.013      50.799306      48.945848      53.62834     
     80800   299.48802      0.0808         7.4423604      0.058560626    0.17570758     876.9021       1720.2988     -74423.604      50.81734       48.848655      53.633302    
     80900   300.89961      0.0809         7.4939369      0.017551788    0.12413107     1215.8773      588.88496     -74939.369      50.777783      48.887542      53.638264    
     81000   303.47893      0.081          7.5592469     -0.034189265    0.058821011   -867.1935      -289.63588     -75592.469      50.843132      48.873985      53.643227    
     81100   300.19052      0.0811         7.567614      -0.042769038    0.050453978   -83.728982     -425.7139      -75676.14       50.780064      48.919223      53.648189    
     81200   299.61996      0.0812         7.5476042     -0.022845706    0.070463702    499.07741      929.90684     -75476.042      50.796169      48.874752      53.653152    
     81300   300.44518      0.0813         7.5485142     -0.01820501     0.06955375     206.04793     -247.20791     -75485.142      50.784298      48.90646       53.658114    
     81400   298.41857      0.0814         7.5730522     -0.028863064    0.045015751   -1062.1907     -468.28498     -75730.522      50.832504      48.879223      53.663076    
     81500   295.67025      0.0815         7.522957       0.025028541    0.095110992    352.46283      216.35955     -75229.57       50.781494      48.893759      53.668039    
     81600   301.82335      0.0816         7.5723019     -0.028892982    0.045766077    622.37509      353.79635     -75723.019      50.783041      48.882102      53.673001    
     81700   300.84271      0.0817         7.6146119     -0.070391966    0.003456028   -1023.1749     -466.60946     -76146.119      50.83353       48.865034      53.677963    
     81800   302.84807      0.0818         7.5787455     -0.020886986    0.039322499   -9.9139069     -479.66678     -75787.455      50.765036      48.918364      53.682926    
     81900   298.90399      0.0819         7.5515466      0.012072844    0.066521359    519.13725      1223.7947     -75515.466      50.781219      48.862379      53.687888    
     82000   296.55042      0.082          7.6153585     -0.046127916    0.0027094416   911.03462     -39.146986     -76153.585      50.741107      48.914293      53.69285     
     82100   301.57763      0.0821         7.6441541     -0.067269519    0             -1797.0092     -567.32415     -76441.541      50.856191      48.850944      53.697813    
     82200   300.5277       0.0822         7.6101188     -0.026982706    0.034035361    142.20929     -392.81628     -76101.188      50.782567      48.885433      53.702775    
     82300   297.01904      0.0823         7.5632877      0.021325704    0.08086642     571.39597      1051.893      -75632.877      50.780299      48.859746      53.707738    
     82400   300.42008      0.0824         7.6227166     -0.033136717    0.021437563   -633.99323     -758.35412     -76227.166      50.778033      48.906417      53.7127      
     82500   299.89068      0.0825         7.640749      -0.039389942    0.0034051349  -521.40482     -623.16965     -76407.49       50.793875      48.875696      53.717662    
     82600   300.80459      0.0826         7.5775102      0.024369714    0.066643961    556.22707      865.45036     -75775.102      50.798938      48.829662      53.722625    
     82700   304.09611      0.0827         7.5797701      0.018625581    0.064384009    851.76415      497.07356     -75797.701      50.769842      48.86604       53.727587    
     82800   301.16486      0.0828         7.6595458     -0.05307006     0             -812.98808     -365.48771     -76595.458      50.793354      48.870741      53.732549    
     82900   294.96419      0.0829         7.676592      -0.057611716    0             -98.973194     -347.99169     -76765.92       50.777785      48.868699      53.737512    
     83000   300.27437      0.083          7.6104899      0.008003547    0.066102128    249.75803      533.82935     -76104.899      50.788181      48.842424      53.742474    
     83100   303.55901      0.0831         7.6058528      0.0088104627   0.070739175    60.101407     -274.32745     -76058.528      50.750752      48.890725      53.747437    
     83200   296.47892      0.0832         7.6717264     -0.05090232     0.0048656337  -913.12329     -1038.1791     -76717.264      50.768894      48.892905      53.752399    
     83300   301.86115      0.0833         7.6097994      0.015675797    0.06679258     30.328654      448.35066     -76097.994      50.796023      48.824249      53.757361    
     83400   295.16561      0.0834         7.5196056      0.095558527    0.15698641     1669.0394      1620.6476     -75196.056      50.762907      48.804916      53.762324    
     83500   298.7113       0.0835         7.571667       0.036588924    0.10492501    -201.4929       176.02544     -75716.67       50.79552       48.815979      53.767286    
     83600   302.23506      0.0836         7.6383573     -0.02401664     0.038234733   -1600.0712     -2264.5028     -76383.573      50.785129      48.874715      53.772248    
     83700   299.90891      0.0837         7.4759339      0.12802306     0.20065805    -506.14447      327.55635     -74759.339      50.801042      48.790962      53.777211    
     83800   295.6945       0.0838         7.3135442      0.25581267     0.36304782     2396.8644      1574.8003     -73135.442      50.711014      48.804857      53.782173    
     83900   305.11442      0.0839         7.3532499      0.1837727      0.32334206    -521.35813      61.123974     -73532.499      50.789126      48.771646      53.787136    
     84000   300.85718      0.084          7.2950965      0.21038681     0.38149551    -1084.1151     -1481.1654     -72950.965      50.784417      48.784018      53.792098    
     84100   300.41248      0.0841         7.096733       0.3578383      0.57985898     454.18146      475.56987     -70967.33       50.790761      48.70604       53.79706     
     84200   301.4649       0.0842         6.9486688      0.43359678     0.72792322     229.04178      307.87371     -69486.688      50.780185      48.688092      53.802023    
     84300   303.50163      0.0843         6.8192796      0.48393394     0.85731235    -448.64718     -433.66656     -68192.796      50.794411      48.653201      53.806985    
     84400   303.18635      0.0844         6.6154268      0.5973689      1.0611652      164.51749     -59.72816      -66154.268      50.786996      48.608513      53.811947    
     84500   301.89591      0.0845         6.296673       0.78862327     1.379919       589.00179      662.74589     -62966.73       50.785421      48.5449        53.81691     
     84600   305.2244       0.0846         5.9550831      0.96188581     1.7215089      64.844591     -80.055052     -59550.831      50.765268      48.517153      53.821872    
     84700   309.03311      0.0847         5.6945886      1.0442458      1.9820034     -606.77681     -590.8948      -56945.886      50.749185      48.480434      53.826834    
Fix halt condition for fix-id halt_peak_fix met on step 84800 with value 1
     84800   309.69715      0.0848         5.3082307      1.2300723      2.3683613     -2.625368       284.60614     -53082.307      50.740219      48.393387      53.831797    
Loop time of 567.001 on 1 procs for 84800 steps with 7560 atoms

Performance: 25.844 ns/day, 0.929 hours/ns, 149.559 timesteps/s, 1.131 Matom-step/s
110.9% CPU use with 1 MPI tasks x 1 OpenMP threads

MPI task timing breakdown:
Section |  min time  |  avg time  |  max time  |%varavg| %total
---------------------------------------------------------------
Pair    | 527.54     | 527.54     | 527.54     |   0.0 | 93.04
Neigh   | 7.5813     | 7.5813     | 7.5813     |   0.0 |  1.34
Comm    | 2.165      | 2.165      | 2.165      |   0.0 |  0.38
Output  | 10.719     | 10.719     | 10.719     |   0.0 |  1.89
Modify  | 17.752     | 17.752     | 17.752     |   0.0 |  3.13
Other   |            | 1.244      |            |       |  0.22

Nlocal:           7560 ave        7560 max        7560 min
Histogram: 1 0 0 0 0 0 0 0 0 0
Nghost:           8966 ave        8966 max        8966 min
Histogram: 1 0 0 0 0 0 0 0 0 0
Neighs:         381701 ave      381701 max      381701 min
Histogram: 1 0 0 0 0 0 0 0 0 0
FullNghs:       762951 ave      762951 max      762951 min
Histogram: 1 0 0 0 0 0 0 0 0 0

Total # of neighbors = 762951
Ave neighs/atom = 100.91944
Neighbor list builds = 579
Dangerous builds = 0
Total wall time: 0:09:41
        7.096733       0.3578383      0.57985898     454.18146      475.56987     -70967.33       50.790761      48.70604       53.79706     
     84200   301.4649       0.0842         6.9486688      0.43359678     0.72792322     229.04178      307.87371     -69486.688      50.780185      48.688092      53.802023    
     84300   303.50163      0.0843         6.8192796      0.48393394     0.85731235    -448.64718     -433.66656     -68192.796      50.794411      48.653201      53.806985    
     84400   303.18635      0.0844         6.6154268      0.5973689      1.0611652      164.51749     -59.72816      -66154.268      50.786996      48.608513      53.811947    
     84500   301.89591      0.0845         6.296673       0.78862327     1.379919       589.00179      662.74589     -62966.73       50.785421      48.5449        53.81691     
     84600   305.2244       0.0846         5.9550831      0.96188581     1.7215089      64.844591     -80.055052     -59550.831      50.765268      48.517153      53.821872    
     84700   309.03311      0.0847         5.6945886      1.0442458      1.9820034     -606.77681     -590.8948      -56945.886      50.749185      48.480434      53.826834    
Fix halt condition for fix-id halt_peak_fix met on step 84800 with value 1
     84800   309.69715      0.0848         5.3082307      1.2300723      2.3683613     -2.625368       284.60614     -53082.307      50.740219      48.393387      53.831797    
Loop time of 567.001 on 1 procs for 84800 steps with 7560 atoms

Performance: 25.844 ns/day, 0.929 hours/ns, 149.559 timesteps/s, 1.131 Matom-step/s
110.9% CPU use with 1 MPI tasks x 1 OpenMP threads

MPI task timing breakdown:
Section |  min time  |  avg time  |  max time  |%varavg| %total
---------------------------------------------------------------
Pair    | 527.54     | 527.54     | 527.54     |   0.0 | 93.04
Neigh   | 7.5813     | 7.5813     | 7.5813     |   0.0 |  1.34
Comm    | 2.165      | 2.165      | 2.165      |   0.0 |  0.38
Output  | 10.719     | 10.719     | 10.719     |   0.0 |  1.89
Modify  | 17.752     | 17.752     | 17.752     |   0.0 |  3.13
Other   |            | 1.244      |            |       |  0.22

Nlocal:           7560 ave        7560 max        7560 min
Histogram: 1 0 0 0 0 0 0 0 0 0
Nghost:           8966 ave        8966 max        8966 min
Histogram: 1 0 0 0 0 0 0 0 0 0
Neighs:         381701 ave      381701 max      381701 min
Histogram: 1 0 0 0 0 0 0 0 0 0
FullNghs:       762951 ave      762951 max      762951 min
Histogram: 1 0 0 0 0 0 0 0 0 0

Total # of neighbors = 762951
Ave neighs/atom = 100.91944
Neighbor list builds = 579
Dangerous builds = 0
Total wall time: 0:09:41
