(written by ASE)

576 atoms
1 atom types

0.0      20.449528111914955  xlo xhi
0.0       17.70981084032238  ylo yhi
0.0      18.784091008084474  zlo zhi

Atoms # atomic

     1   1      2.5561910139893693 -1.5997369426623937e-16 -1.9167520868293902e-16
     2   1      1.2780955069946844      2.2137263550402975 -6.3477696257368078e-17
     3   1 -1.7417428720846013e-16      4.4274527100805949 -1.2695539251473616e-16
     4   1                       0                       0                       0
     5   1 -1.7417428720846013e-16      1.4758175700268648      2.0871212231204974
     6   1      3.8342865209840542      2.2137263550402975 -2.8552230118239939e-16
     7   1      1.2780955069946847       6.641179065120892  3.1611516152927074e-17
     8   1      3.8342865209840538       6.641179065120892  3.1611516152927074e-17
     9   1      2.5561910139893693      4.4274527100805949 -1.2695539251473616e-16
    10   1      1.2780955069946847      3.6895439250671624      2.0871212231204974
    11   1      3.8342865209840538      3.6895439250671624      2.0871212231204974
    12   1      2.5561910139893693      5.9032702801074599      2.0871212231204974
    13   1      2.5561910139893693       1.475817570026865      2.0871212231204974
    14   1      1.2780955069946847     0.73790878501343327      4.1742424462409948
    15   1      3.8342865209840538     0.73790878501343327      4.1742424462409948
    16   1      2.5561910139893693        2.95163514005373      4.1742424462409948
    17   1      1.2780955069946844      8.1169966351477569      2.0871212231204974
    18   1   9.574063543314236e-17      5.9032702801074599      2.0871212231204974
    19   1      1.2780955069946844       5.165361495094027      4.1742424462409948
    20   1   5.496033316981922e-16       7.379087850134324      4.1742424462409939
    21   1   9.574063543314236e-17        2.95163514005373      4.1742424462409948
    22   1      3.8342865209840542      8.1169966351477569      2.0871212231204974
    23   1      3.8342865209840542       5.165361495094027      4.1742424462409948
    24   1      2.5561910139893693      7.3790878501343249      4.1742424462409948
    25   1      2.5561910139893693  1.6679175425457671e-16      6.2613636693614927
    26   1      1.2780955069946844      2.2137263550402975      6.2613636693614927
    27   1 -7.8433651775317769e-17      4.4274527100805949      6.2613636693614927
    28   1   9.574063543314236e-17  1.6679175425457671e-16      6.2613636693614927
    29   1 -7.8433651775317769e-17      1.4758175700268652      8.3484848924819897
    30   1      3.8342865209840542      2.2137263550402975      6.2613636693614927
    31   1      1.2780955069946849       6.641179065120892      6.2613636693614918
    32   1      3.8342865209840542       6.641179065120892      6.2613636693614936
    33   1      2.5561910139893693      4.4274527100805949      6.2613636693614927
    34   1      1.2780955069946849       3.689543925067162      8.3484848924819897
    35   1      3.8342865209840542       3.689543925067162      8.3484848924819914
    36   1      2.5561910139893698      5.9032702801074599      8.3484848924819914
    37   1      2.5561910139893693      1.4758175700268652      8.3484848924819897
    38   1      1.2780955069946849     0.73790878501343304      10.435606115602486
    39   1      3.8342865209840542     0.73790878501343304      10.435606115602488
    40   1      2.5561910139893698        2.95163514005373      10.435606115602489
    41   1      1.2780955069946851      8.1169966351477569      8.3484848924819914
    42   1  1.9148127086628472e-16      5.9032702801074599      8.3484848924819897
    43   1      1.2780955069946851       5.165361495094027      10.435606115602489
    44   1  1.0894331769813972e-15       7.379087850134324      10.435606115602488
    45   1  1.9148127086628472e-16        2.95163514005373      10.435606115602488
    46   1      3.8342865209840538      8.1169966351477569      8.3484848924819897
    47   1      3.8342865209840538       5.165361495094027      10.435606115602488
    48   1      2.5561910139893689      7.3790878501343249      10.435606115602488
    49   1      2.5561910139893689 -5.5459491119097181e-16      12.522727338722985
    50   1      1.2780955069946842      2.2137263550402975      12.522727338722985
    51   1  -1.054819209665748e-15      4.4274527100805949      12.522727338722985
    52   1  1.9148127086628472e-16  3.3358350850915342e-16      12.522727338722985
    53   1  -1.054819209665748e-15      1.4758175700268654      14.609848561843483
    54   1      3.8342865209840538      2.2137263550402975      12.522727338722985
    55   1      1.2780955069946838       6.641179065120892      12.522727338722985
    56   1      3.8342865209840538       6.641179065120892      12.522727338722985
    57   1      2.5561910139893689      4.4274527100805949      12.522727338722985
    58   1      1.2780955069946838      3.6895439250671624      14.609848561843483
    59   1      3.8342865209840538      3.6895439250671624      14.609848561843483
    60   1      2.5561910139893689      5.9032702801074599      14.609848561843483
    61   1      2.5561910139893689      1.4758175700268654      14.609848561843483
    62   1      1.2780955069946838     0.73790878501343315      16.696969784963979
    63   1      3.8342865209840538     0.73790878501343315      16.696969784963979
    64   1      2.5561910139893689      2.9516351400537304      16.696969784963979
    65   1      1.2780955069946847      8.1169966351477569      14.609848561843481
    66   1 -1.5686730355063554e-16      5.9032702801074599      14.609848561843483
    67   1      1.2780955069946847      5.1653614950940261      16.696969784963979
    68   1  7.4108460256447692e-16       7.379087850134324      16.696969784963979
    69   1 -1.5686730355063554e-16      2.9516351400537304      16.696969784963979
    70   1      3.8342865209840538      8.1169966351477587      14.609848561843483
    71   1      3.8342865209840538      5.1653614950940279      16.696969784963979
    72   1      2.5561910139893698       7.379087850134324      16.696969784963979
    73   1      2.5561910139893693      8.8549054201611899 -2.5391078502947231e-16
    74   1      1.2780955069946844      11.068631775201487 -6.0813392606409286e-16
    75   1 -7.8433651775317769e-17      13.282358130241784  6.3223032305854149e-17
    76   1   9.574063543314236e-17      8.8549054201611899 -2.5391078502947231e-16
    77   1 -7.8433651775317769e-17      10.330722990188054      2.0871212231204974
    78   1      3.8342865209840542      11.068631775201487 -6.0813392606409286e-16
    79   1      1.2780955069946849      15.496084485282081 -1.5359842902432407e-16
    80   1      3.8342865209840542      15.496084485282081  1.6227584103759264e-15
    81   1      2.5561910139893693      13.282358130241784  6.3223032305854149e-17
    82   1      1.2780955069946849      12.544449345228353      2.0871212231204965
    83   1      3.8342865209840542      12.544449345228353      2.0871212231204983
    84   1      2.5561910139893698       14.75817570026865      2.0871212231204987
    85   1      2.5561910139893693      10.330722990188054      2.0871212231204974
    86   1      1.2780955069946849      9.5928142051746228      4.1742424462409939
    87   1      3.8342865209840542      9.5928142051746228      4.1742424462409957
    88   1      2.5561910139893698       11.80654056021492      4.1742424462409966
    89   1      1.2780955069946851      16.971902055308945      2.0871212231204996
    90   1  1.9148127086628472e-16       14.75817570026865       2.087121223120497
    91   1      1.2780955069946851      14.020266915255217      4.1742424462409957
    92   1  1.0894331769813972e-15      16.233993270295514      4.1742424462409948
    93   1  1.9148127086628472e-16       11.80654056021492      4.1742424462409948
    94   1      3.8342865209840538      16.971902055308945      2.0871212231204979
    95   1      3.8342865209840538      14.020266915255217      4.1742424462409939
    96   1      2.5561910139893689      16.233993270295514      4.1742424462409948
    97   1      2.5561910139893689      8.8549054201611881      6.2613636693614918
    98   1      1.2780955069946842      11.068631775201487      6.2613636693614927
    99   1  -1.054819209665748e-15      13.282358130241784      6.2613636693614927
   100   1  1.9148127086628472e-16      8.8549054201611899      6.2613636693614918
   101   1  -1.054819209665748e-15      10.330722990188054      8.3484848924819897
   102   1      3.8342865209840538      11.068631775201487      6.2613636693614927
   103   1      1.2780955069946838      15.496084485282083      6.2613636693614918
   104   1      3.8342865209840538      15.496084485282083      6.2613636693614918
   105   1      2.5561910139893689      13.282358130241784      6.2613636693614927
   106   1      1.2780955069946838      12.544449345228351      8.3484848924819897
   107   1      3.8342865209840538      12.544449345228351      8.3484848924819897
   108   1      2.5561910139893689       14.75817570026865      8.3484848924819897
   109   1      2.5561910139893689      10.330722990188054      8.3484848924819897
   110   1      1.2780955069946838      9.5928142051746228      10.435606115602488
   111   1      3.8342865209840538      9.5928142051746228      10.435606115602488
   112   1      2.5561910139893689       11.80654056021492      10.435606115602488
   113   1      1.2780955069946847      16.971902055308945      8.3484848924819879
   114   1 -1.5686730355063554e-16       14.75817570026865      8.3484848924819897
   115   1      1.2780955069946847      14.020266915255215      10.435606115602486
   116   1  7.4108460256447692e-16      16.233993270295514      10.435606115602486
   117   1 -1.5686730355063554e-16       11.80654056021492      10.435606115602488
   118   1      3.8342865209840538      16.971902055308949      8.3484848924819897
   119   1      3.8342865209840538      14.020266915255217      10.435606115602488
   120   1      2.5561910139893698      16.233993270295514      10.435606115602486
   121   1      2.5561910139893698      8.8549054201611881      12.522727338722984
   122   1      1.2780955069946847      11.068631775201485      12.522727338722984
   123   1  7.4108460256447692e-16      13.282358130241784      12.522727338722984
   124   1 -1.5686730355063554e-16      8.8549054201611899      12.522727338722985
   125   1  7.4108460256447692e-16      10.330722990188054      14.609848561843481
   126   1      3.8342865209840546      11.068631775201485      12.522727338722984
   127   1      1.2780955069946855      15.496084485282081      12.522727338722984
   128   1      3.8342865209840546      15.496084485282081      12.522727338722984
   129   1      2.5561910139893698      13.282358130241784      12.522727338722984
   130   1      1.2780955069946855      12.544449345228351      14.609848561843481
   131   1      3.8342865209840546      12.544449345228351      14.609848561843481
   132   1      2.5561910139893707      14.758175700268648      14.609848561843481
   133   1      2.5561910139893698      10.330722990188054      14.609848561843481
   134   1      1.2780955069946855      9.5928142051746228      16.696969784963979
   135   1      3.8342865209840546      9.5928142051746228      16.696969784963979
   136   1      2.5561910139893707      11.806540560214918      16.696969784963979
   137   1      1.2780955069946853      16.971902055308945      14.609848561843481
   138   1  3.8296254173256944e-16       14.75817570026865      14.609848561843481
   139   1      1.2780955069946853      14.020266915255215      16.696969784963979
   140   1  2.5369884147947018e-15       16.23399327029551      16.696969784963979
   141   1  3.8296254173256944e-16       11.80654056021492      16.696969784963979
   142   1      3.8342865209840555      16.971902055308945      14.609848561843485
   143   1      3.8342865209840555      14.020266915255215      16.696969784963983
   144   1      2.5561910139893702      16.233993270295514      16.696969784963983
   145   1      7.6685730419681075  1.2509381569093253e-16  3.1611516152927074e-17
   146   1      6.3904775349734226      2.2137263550402975 -6.3477696257368078e-17
   147   1      5.1123820279787386      4.4274527100805949 -1.2695539251473616e-16
   148   1      5.1123820279787386  8.3395877127288354e-17 -1.2695539251473616e-16
   149   1      5.1123820279787386       1.475817570026865      2.0871212231204974
   150   1      8.9466685489627924      2.2137263550402975 -2.8552230118239939e-16
   151   1      6.3904775349734235       6.641179065120892 -4.1247769369713554e-16
   152   1      8.9466685489627924       6.641179065120892  9.1978993585305241e-16
   153   1      7.6685730419681075      4.4274527100805949 -1.2695539251473616e-16
   154   1      6.3904775349734235      3.6895439250671624       2.087121223120497
   155   1      8.9466685489627924      3.6895439250671624      2.0871212231204983
   156   1      7.6685730419681084      5.9032702801074599      2.0871212231204983
   157   1      7.6685730419681075       1.475817570026865      2.0871212231204974
   158   1      6.3904775349734235     0.73790878501343327      4.1742424462409939
   159   1      8.9466685489627924     0.73790878501343327      4.1742424462409957
   160   1      7.6685730419681084        2.95163514005373      4.1742424462409957
   161   1      6.3904775349734235      8.1169966351477569      2.0871212231204983
   162   1      5.1123820279787386      5.9032702801074599      2.0871212231204974
   163   1      6.3904775349734235       5.165361495094027      4.1742424462409957
   164   1      5.1123820279787395      7.3790878501343249      4.1742424462409948
   165   1      5.1123820279787386        2.95163514005373      4.1742424462409948
   166   1      8.9466685489627924      8.1169966351477569      2.0871212231204974
   167   1      8.9466685489627924       5.165361495094027      4.1742424462409948
   168   1      7.6685730419681075      7.3790878501343249      4.1742424462409948
   169   1      7.6685730419681075 -2.7729745559548591e-16      6.2613636693614927
   170   1      6.3904775349734226       2.213726355040297      6.2613636693614927
   171   1      5.1123820279787378       4.427452710080594      6.2613636693614927
   172   1      5.1123820279787386  1.6679175425457671e-16      6.2613636693614927
   173   1      5.1123820279787378      1.4758175700268643      8.3484848924819897
   174   1      8.9466685489627924      2.2137263550402975      6.2613636693614927
   175   1      6.3904775349734226       6.641179065120892      6.2613636693614927
   176   1      8.9466685489627924       6.641179065120892      6.2613636693614918
   177   1      7.6685730419681075      4.4274527100805949      6.2613636693614927
   178   1      6.3904775349734226       3.689543925067162      8.3484848924819897
   179   1      8.9466685489627924       3.689543925067162      8.3484848924819897
   180   1      7.6685730419681075       5.903270280107459      8.3484848924819897
   181   1      7.6685730419681075      1.4758175700268652      8.3484848924819897
   182   1      6.3904775349734226     0.73790878501343304      10.435606115602488
   183   1      8.9466685489627924     0.73790878501343304      10.435606115602486
   184   1      7.6685730419681075      2.9516351400537291      10.435606115602488
   185   1      6.3904775349734235      8.1169966351477569      8.3484848924819897
   186   1      5.1123820279787386      5.9032702801074599      8.3484848924819897
   187   1      6.3904775349734235       5.165361495094027      10.435606115602488
   188   1      5.1123820279787395       7.379087850134324      10.435606115602486
   189   1      5.1123820279787386        2.95163514005373      10.435606115602488
   190   1      8.9466685489627924      8.1169966351477569      8.3484848924819897
   191   1      8.9466685489627924       5.165361495094027      10.435606115602488
   192   1      7.6685730419681084      7.3790878501343249      10.435606115602488
   193   1      7.6685730419681075 -5.5459491119097181e-16      12.522727338722985
   194   1      6.3904775349734235      2.2137263550402975      12.522727338722985
   195   1      5.1123820279787386       4.427452710080594      12.522727338722985
   196   1      5.1123820279787386  3.3358350850915342e-16      12.522727338722985
   197   1      5.1123820279787386      1.4758175700268645      14.609848561843483
   198   1      8.9466685489627924      2.2137263550402975      12.522727338722985
   199   1      6.3904775349734235       6.641179065120892      12.522727338722985
   200   1      8.9466685489627924       6.641179065120892      12.522727338722985
   201   1      7.6685730419681084      4.4274527100805949      12.522727338722985
   202   1      6.3904775349734235      3.6895439250671624      14.609848561843483
   203   1      8.9466685489627924      3.6895439250671624      14.609848561843483
   204   1      7.6685730419681084      5.9032702801074599      14.609848561843483
   205   1      7.6685730419681084      1.4758175700268654      14.609848561843483
   206   1      6.3904775349734235     0.73790878501343315      16.696969784963979
   207   1      8.9466685489627924     0.73790878501343315      16.696969784963979
   208   1      7.6685730419681084      2.9516351400537304      16.696969784963979
   209   1      6.3904775349734235      8.1169966351477569      14.609848561843483
   210   1      5.1123820279787386      5.9032702801074599      14.609848561843483
   211   1      6.3904775349734235      5.1653614950940261      16.696969784963979
   212   1      5.1123820279787395       7.379087850134324      16.696969784963979
   213   1      5.1123820279787386      2.9516351400537304      16.696969784963979
   214   1      8.9466685489627924      8.1169966351477587      14.609848561843485
   215   1      8.9466685489627924      5.1653614950940279      16.696969784963983
   216   1      7.6685730419681084       7.379087850134324      16.696969784963983
   217   1      7.6685730419681075      8.8549054201611899 -2.5391078502947231e-16
   218   1      6.3904775349734226      11.068631775201487 -6.0813392606409286e-16
   219   1      5.1123820279787378      13.282358130241784  6.3223032305854149e-17
   220   1      5.1123820279787386      8.8549054201611899 -2.5391078502947231e-16
   221   1      5.1123820279787378      10.330722990188054      2.0871212231204974
   222   1      8.9466685489627924      11.068631775201487 -6.0813392606409286e-16
   223   1      6.3904775349734226      15.496084485282081  7.3457999067580116e-16
   224   1      8.9466685489627924      15.496084485282081 -1.5359842902432407e-16
   225   1      7.6685730419681075      13.282358130241784  6.3223032305854149e-17
   226   1      6.3904775349734226      12.544449345228353      2.0871212231204974
   227   1      8.9466685489627924      12.544449345228353      2.0871212231204965
   228   1      7.6685730419681075      14.758175700268648       2.087121223120497
   229   1      7.6685730419681075      10.330722990188054      2.0871212231204974
   230   1      6.3904775349734226      9.5928142051746228      4.1742424462409948
   231   1      8.9466685489627924      9.5928142051746228      4.1742424462409939
   232   1      7.6685730419681075      11.806540560214918      4.1742424462409948
   233   1      6.3904775349734235      16.971902055308945      2.0871212231204979
   234   1      5.1123820279787386       14.75817570026865       2.087121223120497
   235   1      6.3904775349734235      14.020266915255217      4.1742424462409939
   236   1      5.1123820279787395      16.233993270295514      4.1742424462409931
   237   1      5.1123820279787386       11.80654056021492      4.1742424462409948
   238   1      8.9466685489627924      16.971902055308945      2.0871212231204979
   239   1      8.9466685489627924      14.020266915255217      4.1742424462409939
   240   1      7.6685730419681084      16.233993270295514      4.1742424462409948
   241   1      7.6685730419681075      8.8549054201611881      6.2613636693614918
   242   1      6.3904775349734235      11.068631775201487      6.2613636693614927
   243   1      5.1123820279787386      13.282358130241784      6.2613636693614927
   244   1      5.1123820279787386      8.8549054201611899      6.2613636693614918
   245   1      5.1123820279787386      10.330722990188054      8.3484848924819897
   246   1      8.9466685489627924      11.068631775201487      6.2613636693614927
   247   1      6.3904775349734235      15.496084485282083      6.2613636693614918
   248   1      8.9466685489627924      15.496084485282083      6.2613636693614918
   249   1      7.6685730419681084      13.282358130241784      6.2613636693614927
   250   1      6.3904775349734235      12.544449345228351      8.3484848924819897
   251   1      8.9466685489627924      12.544449345228351      8.3484848924819897
   252   1      7.6685730419681084       14.75817570026865      8.3484848924819897
   253   1      7.6685730419681084      10.330722990188054      8.3484848924819897
   254   1      6.3904775349734235      9.5928142051746228      10.435606115602488
   255   1      8.9466685489627924      9.5928142051746228      10.435606115602488
   256   1      7.6685730419681084       11.80654056021492      10.435606115602488
   257   1      6.3904775349734235      16.971902055308945      8.3484848924819897
   258   1      5.1123820279787386       14.75817570026865      8.3484848924819897
   259   1      6.3904775349734235      14.020266915255215      10.435606115602488
   260   1      5.1123820279787395      16.233993270295514      10.435606115602486
   261   1      5.1123820279787386       11.80654056021492      10.435606115602488
   262   1      8.9466685489627924      16.971902055308949      8.3484848924819914
   263   1      8.9466685489627924      14.020266915255217      10.435606115602489
   264   1      7.6685730419681084      16.233993270295514      10.435606115602489
   265   1      7.6685730419681084      8.8549054201611899      12.522727338722985
   266   1      6.3904775349734235      11.068631775201485      12.522727338722985
   267   1      5.1123820279787386      13.282358130241784      12.522727338722985
   268   1      5.1123820279787386      8.8549054201611899      12.522727338722985
   269   1      5.1123820279787386      10.330722990188054      14.609848561843483
   270   1      8.9466685489627924      11.068631775201487      12.522727338722987
   271   1      6.3904775349734235      15.496084485282081      12.522727338722987
   272   1      8.9466685489627924      15.496084485282081      12.522727338722985
   273   1      7.6685730419681084      13.282358130241784      12.522727338722987
   274   1      6.3904775349734235      12.544449345228351      14.609848561843485
   275   1      8.9466685489627924      12.544449345228351      14.609848561843483
   276   1      7.6685730419681066       14.75817570026865      14.609848561843481
   277   1      7.6685730419681084      10.330722990188054      14.609848561843485
   278   1      6.3904775349734235      9.5928142051746228      16.696969784963983
   279   1      8.9466685489627924      9.5928142051746228      16.696969784963979
   280   1      7.6685730419681066       11.80654056021492      16.696969784963979
   281   1      6.3904775349734226      16.971902055308945      14.609848561843481
   282   1      5.1123820279787395       14.75817570026865      14.609848561843485
   283   1      6.3904775349734226      14.020266915255215      16.696969784963979
   284   1      5.1123820279787386      16.233993270295514      16.696969784963979
   285   1      5.1123820279787395       11.80654056021492      16.696969784963983
   286   1      8.9466685489627906      16.971902055308949      14.609848561843481
   287   1      8.9466685489627906      14.020266915255217      16.696969784963979
   288   1      7.6685730419681075      16.233993270295514      16.696969784963979
   289   1      12.780955069946847 -5.9819683850131329e-16 -6.0813392606409286e-16
   290   1       11.50285956295216       2.213726355040297 -6.3477696257368078e-17
   291   1      10.224764055957477      4.4274527100805949 -1.2695539251473616e-16
   292   1      10.224764055957477  1.6679175425457671e-16 -2.5391078502947231e-16
   293   1      10.224764055957477      1.4758175700268648      2.0871212231204974
   294   1      14.059050576941532      2.2137263550402975 -5.0756690610743069e-16
   295   1      11.502859562952162       6.641179065120892  3.1611516152927074e-17
   296   1       14.05905057694153       6.641179065120892 -8.5656690354719816e-16
   297   1      12.780955069946845      4.4274527100805949 -1.2695539251473616e-16
   298   1      11.502859562952162      3.6895439250671624      2.0871212231204974
   299   1       14.05905057694153       3.689543925067162      2.0871212231204965
   300   1      12.780955069946847       5.903270280107459      2.0871212231204974
   301   1      12.780955069946845      1.4758175700268652      2.0871212231204974
   302   1      11.502859562952162     0.73790878501343327      4.1742424462409948
   303   1       14.05905057694153     0.73790878501343282      4.1742424462409939
   304   1      12.780955069946847      2.9516351400537295      4.1742424462409948
   305   1      11.502859562952162      8.1169966351477569      2.0871212231204965
   306   1      10.224764055957477      5.9032702801074599      2.0871212231204974
   307   1      11.502859562952162       5.165361495094027      4.1742424462409939
   308   1      10.224764055957477       7.379087850134324      4.1742424462409939
   309   1      10.224764055957477        2.95163514005373      4.1742424462409948
   310   1      14.059050576941532      8.1169966351477569      2.0871212231204974
   311   1      14.059050576941532       5.165361495094027      4.1742424462409948
   312   1      12.780955069946847      7.3790878501343249      4.1742424462409939
   313   1      12.780955069946847 -2.7729745559548591e-16      6.2613636693614927
   314   1      11.502859562952162       2.213726355040297      6.2613636693614918
   315   1      10.224764055957477      4.4274527100805949      6.2613636693614918
   316   1      10.224764055957477  1.6679175425457671e-16      6.2613636693614927
   317   1      10.224764055957477      1.4758175700268652      8.3484848924819897
   318   1      14.059050576941532      2.2137263550402975      6.2613636693614927
   319   1      11.502859562952162      6.6411790651208928      6.2613636693614918
   320   1      14.059050576941532       6.641179065120892      6.2613636693614918
   321   1      12.780955069946847      4.4274527100805949      6.2613636693614918
   322   1      11.502859562952162      3.6895439250671629      8.3484848924819897
   323   1      14.059050576941532       3.689543925067162      8.3484848924819897
   324   1      12.780955069946847      5.9032702801074599      8.3484848924819897
   325   1      12.780955069946847      1.4758175700268652      8.3484848924819897
   326   1      11.502859562952162     0.73790878501343393      10.435606115602486
   327   1      14.059050576941532     0.73790878501343304      10.435606115602486
   328   1      12.780955069946847        2.95163514005373      10.435606115602488
   329   1      11.502859562952162      8.1169966351477569      8.3484848924819897
   330   1      10.224764055957477      5.9032702801074599      8.3484848924819897
   331   1      11.502859562952162       5.165361495094027      10.435606115602488
   332   1      10.224764055957479       7.379087850134324      10.435606115602488
   333   1      10.224764055957477        2.95163514005373      10.435606115602488
   334   1      14.059050576941532      8.1169966351477569      8.3484848924819914
   335   1      14.059050576941532      5.1653614950940279      10.435606115602489
   336   1      12.780955069946847      7.3790878501343249      10.435606115602489
   337   1      12.780955069946847 -5.5459491119097181e-16      12.522727338722985
   338   1      11.502859562952162      2.2137263550402975      12.522727338722985
   339   1      10.224764055957477       4.427452710080594      12.522727338722985
   340   1      10.224764055957477  3.3358350850915342e-16      12.522727338722985
   341   1      10.224764055957477      1.4758175700268645      14.609848561843483
   342   1      14.059050576941532      2.2137263550402975      12.522727338722987
   343   1      11.502859562952162       6.641179065120892      12.522727338722987
   344   1       14.05905057694153       6.641179065120892      12.522727338722985
   345   1      12.780955069946847      4.4274527100805949      12.522727338722987
   346   1      11.502859562952162      3.6895439250671624      14.609848561843485
   347   1       14.05905057694153      3.6895439250671624      14.609848561843483
   348   1      12.780955069946845      5.9032702801074599      14.609848561843483
   349   1      12.780955069946847      1.4758175700268654      14.609848561843485
   350   1      11.502859562952162     0.73790878501343315      16.696969784963983
   351   1       14.05905057694153     0.73790878501343315      16.696969784963979
   352   1      12.780955069946845      2.9516351400537304      16.696969784963979
   353   1       11.50285956295216      8.1169966351477569      14.609848561843483
   354   1      10.224764055957477      5.9032702801074599      14.609848561843485
   355   1       11.50285956295216      5.1653614950940261      16.696969784963979
   356   1      10.224764055957477       7.379087850134324      16.696969784963979
   357   1      10.224764055957477      2.9516351400537304      16.696969784963983
   358   1       14.05905057694153      8.1169966351477587      14.609848561843483
   359   1       14.05905057694153      5.1653614950940279      16.696969784963979