LAMMPS (10 Dec 2025)
OMP_NUM_THREADS environment is not set. Defaulting to 1 thread.
  using 1 OpenMP thread(s) per MPI task
Reading data file ...
  orthogonal box = (0 0 0) to (20.449528 17.709811 18.784091)
  1 by 1 by 1 MPI processor grid
  reading atoms ...
  576 atoms
  read_data CPU = 0.004 seconds
Changing box ...
  triclinic box = (0 0 0) to (20.449528 17.709811 18.784091) with tilt (0 0 0)
Reading eam/alloy potential file /mnt/c/Users/iwash/Documents/Repositories/Simulation/potentials/Cu_zhou.eam.alloy with DATE: 2007-10-12
=== Phase 1: 0K Relaxation ===
Switching to 'neigh_modify every 1 delay 0 check yes' setting during minimization
Neighbor list info ...
  update: every = 1 steps, delay = 0 steps, check = yes
  max neighbors/atom: 2000, page size: 100000
  master list distance cutoff = 11.0375
  ghost atom cutoff = 11.0375
  binsize = 5.51875, bins = 4 4 4
  1 neighbor lists, perpetual/occasional/extra = 1 0 0
  (1) pair eam/alloy, perpetual
      attributes: half, newton on
      pair build: half/bin/atomonly/newton/tri
      stencil: half/bin/3d/tri
      bin: standard
Setting up cg style minimization ...
  Unit style    : metal
  Current step  : 0
WARNING: Energy due to 3 extra global DOFs will be included in minimizer energies
 (src/min.cpp:222)
Per MPI rank memory allocation (min/avg/max) = 5.092 | 5.092 | 5.092 Mbytes
   Step          Temp          PotEng         Press           Pxx            Pyy            Pzz             Lx             Ly             Lz      
         0   0             -2038.9268     -214.13474     -214.13474     -214.13474     -214.13474      20.449528      17.709811      18.784091    
         2   0             -2038.9268     -0.0052365602  -0.0052365601  -0.0052365601  -0.0052365603   20.448472      17.708896      18.783121    
Loop time of 0.0136697 on 1 procs for 2 steps with 576 atoms

103.2% CPU use with 1 MPI tasks x 1 OpenMP threads

Minimization stats:
  Stopping criterion = energy tolerance
  Energy initial, next-to-last, final = 
     -2038.92676608287  -2038.92683654129  -2038.92683654753
  Force two-norm initial, final = 1.5747978 3.850693e-05
  Force max component initial, final = 0.90920995 2.2231987e-05
  Final line search alpha, max atom move = 0.22831472 5.0758897e-06
  Iterations, force evaluations = 2 4

MPI task timing breakdown:
Section |  min time  |  avg time  |  max time  |%varavg| %total
---------------------------------------------------------------
Pair    | 0.013361   | 0.013361   | 0.013361   |   0.0 | 97.74
Neigh   | 0          | 0          | 0          |   0.0 |  0.00
Comm    | 6.032e-05  | 6.032e-05  | 6.032e-05  |   0.0 |  0.44
Output  | 0          | 0          | 0          |   0.0 |  0.00
Modify  | 0          | 0          | 0          |   0.0 |  0.00
Other   |            | 0.0002485  |            |       |  1.82

Nlocal:            576 ave         576 max         576 min
Histogram: 1 0 0 0 0 0 0 0 0 0
Nghost:           5268 ave        5268 max        5268 min
Histogram: 1 0 0 0 0 0 0 0 0 0
Neighs:         131904 ave      131904 max      131904 min
Histogram: 1 0 0 0 0 0 0 0 0 0

Total # of neighbors = 131904
Ave neighs/atom = 229
Neighbor list builds = 0
Dangerous builds = 0
=== Phase 2: Equilibration at 300.0K ===
Setting up Verlet run ...
  Unit style    : metal
  Current step  : 0
  Time step     : 0.002
Per MPI rank memory allocation (min/avg/max) = 3.982 | 3.982 | 3.982 Mbytes
   Step          Temp          PotEng         Press           Pxx            Pyy            Pzz             Lx             Ly             Lz      
         0   300           -2038.92unfix relax

print '=== Phase 2: Equilibration at 300.0K ==='
=== Phase 2: Equilibration at 300.0K ===
reset_timestep 0
velocity all create 300.0 3772 dist gaussian
fix eq all npt temp 300.0 300.0 0.1 tri 0.0 0.0 1.0
run 2500
Per MPI rank memory allocation (min/avg/max) = 3.982 | 3.982 | 3.982 Mbytes
   Step          Temp          PotEng         Press           Pxx            Pyy            Pzz             Lx             Ly             Lz      
         0   300           -2038.9268      3501.4836      3418.5527        17.775911      18.842092    
       400   313.15902     -2014.9718     -4424.8566     -5313.61       -4456.3599     -3504.6         20.547142      17.786433      18.841192    
       500   271.50722     -2015.8736     -8409.561      -6377.8735     -9875.8081     -8975.0014      20.521788      17.815325      18.87899     
       600   311.94009     -2016.937      -12087.104     -13506.853     -10172.337     -12582.121      20.587903      17.782828      18.9038      
       700   290.44468     -2013.2592     -10675.748     -8562.1729     -13993.564     -9471.5082      20.518476      17.872272      18.872274    
       800   297.83352     -2016.5196     -8862.8221     -10725.983     -6314.95       -9547.5334      20.566015      17.766016      18.89492     
       900   280.8463      -2015.5892     -4908.6436     -4544.8774     -5723.6628     -4457.3905      20.537541      17.781169      18.850443    
      1000   305.62586     -2015.0215     -839.06627      987.18946     -1441.4026     -2062.9856      20.484158      17.778352      18.855164    
      1100   324.18868     -2017.3974      1424.9865     -873.3693       3145.9847      2002.344       20.534875      17.728853      18.814777    
      1200   290.5208      -2016.6726      4888.979       6993.8941      2807.0649      4865.9779      20.436803      17.772097      18.805808    
      1300   305.04852     -2015.5803      7140.7         5148.5195      10072.692      6200.8884      20.502709      17.689184      18.81163     
      1400   316.07305     -2016.7193      7010.5368      7292.8056      5151.7667      8587.0381      20.461912      17.751881      18.776566    
      1500   289.61068     -2016.2746      6910.8672      8595.6135      6442.106       5694.8822      20.444871      17.728192      18.824392    
      1600   309.13176     -2015.212       4523.4781      971.62811      7262.2414      5336.5648      20.525756      17.713035      18.804062    
      1700   319.19009     -2016.4928      1721.2616      4498.453      -1196.5145      1861.8462      20.464736      17.788215      18.821372    
      1800   301.07215     -2016.2347     -1532.0929     -2034.8593      708.91312     -3270.3324      20.525315      17.726025      18.873119    
      1900   312.58004     -2016.1217     -4784.9179     -5924.8864     -6903.9846     -1525.8825      20.548431      17.814616      18.808953    
      2000   304.50903     -2014.7061     -6860.1356     -5568.305      -5829.7018     -9182.4001      20.524169      17.773894      18.911778    
      2100   277.2606      -2015.4526     -7497.4646     -8667.7092     -7771.317      -6053.3676      20.557672      17.791005      18.862468    
      2200   297.61918     -2015.5571     -7956.7511     -8182.0536     -9671.3516     -6016.8481      20.546402      17.817377      18.853404    
      2300   310.38381     -2015.8124     -6612.4435     -6729.0764     -4101.4767     -9006.7776      20.554097      17.744531      18.902084    
      2400   292.7306      -2016.9425     -3076.5471     -1553.1412     -6415.7047     -1260.7955      20.48228       17.830389      18.815338    
      2500   289.91586     -2014.5115      485.49279     -1405.3218      3236.8236     -375.0234       20.553101      17.709217      18.843316    
Loop time of 6.85982 on 1 procs for 2500 steps with 576 atoms

Performance: 62.975 ns/day, 0.381 hours/ns, 364.441 timesteps/s, 209.918 katom-step/s
109.1% CPU use with 1 MPI tasks x 1 OpenMP threads

MPI task timing breakdown:
Section |  min time  |  avg time  |  max time  |%varavg| %total
-----------------7.830389      18.815338    
      2500   289.91586     -2014.5115      485.49279     -1405.3218      3236.8236     -375.0234       20.553101      17.709217      18.843316    
Loop time of 6.85982 on 1 procs for 2500 steps with 576 atoms

Performance: 62.975 ns/day, 0.381 hours/ns, 364.441 timesteps/s, 209.918 katom-step/s
109.1% CPU use with 1 MPI tasks x 1 OpenMP threads

MPI task timing breakdown:
Section |  min time  |  avg time  |  max time  |%varavg| %total
---------------------------------------------------host:           5268 ave        5268 max        5268 min
Histogram: 1 0 0 0 0 0 0 0 0 0
Neighs:         131904 ave      131904 max      131904 min
Histogram: 1 0 0 0 0 0 0 0 0 0

Total # of neighbors = 131904
Ave neighs/atom = 229
Neighbor list builds = 0
Dangerous builds = 0
=== Phase 3: Tension ===
Neighbor list info ...
  update: every = 1 steps, delay = 10 steps, check = yes
  max neighbors/atom: 2000, page size: 100000
  master list distance cutoff = 11.0375
  ghost atom cutoff = 11.0375
  binsize = 5.51875, bins = 4 4 4
  3 neighbor lists, perpetual/occasional/extra = 1 2 0
  (1) pair eam/alloy, perpetual
      attributes: half, newton on
      pair build: half/bin/atomonly/newton/tri
      stencil: half/bin/3d/tri
      bin: standard
  (2) compute cna/atom, occasional
      attributes: full, newton on
      pair build: full/bin/atomonly
      stencil: full/bin/3d
      bin: standard
  (3) compute centro/atom, occasional
      attributes: full, newton on
      pair build: full/bin/atomonly
      stencil: full/bin/3d
      bin: standard
Setting up Verlet run ...
  Unit style    : metal
  Current step  : 0
  Time step     : 0.002
Per MPI rank memory allocation (min/avg/max) = 5.999 | 5.999 | 5.999 Mbytes
   Step          Temp         v_strain       v_stress    v_stress_drop       Pxx            Pyy            Pzz             Lx             Ly             Lz      
         0   289.91586     -2.2624768e-15  0.03750234     0             -1405.3218      3236.8236     -375.0234       20.553101      17.709217      18.843316    
       100   300.94591      0.0002         0.19232066     0              2313.9225     -2064.8987     -1923.2066      20.46642       17.782302      18.847084    
       200   293.45031      0.0004         0.23687746    -0.05903224    -1113.1195      416.28129     -2368.7746      20.515988      17.741914      18.850853    
       300   292.04922      0.0006         0.2012865     -0.052085239   -1386.153       5.8240647     -2012.865       20.51361       17.750413      18.854622    
       400   316.42841      0.0008         0.24448394    -0.040391039    1560.9925     -2504.4067     -2444.8394      20.469176      17.784676      18.85839     
       500   291.00295      0.001          0.20226157    -0.007926728   -2709.8626      4224.5709     -2022.6157      20.556495      17.687803      18.862159    
       600   305.85774      0.0012         0.10333136     0.044851702    6040.1067     -2101.4861     -1033.3136      20.39985       17.809461      18.865928    
       700   314.96709      0.0014         0.26850386     0.018055834   -1252.9661      4829.8791     -2685.0386      20.540364      17.69099       18.869696    
       800   291.77547      0.0016         0.30717392    -0.062687961    2702.6182      1333.2498     -3071.7392      20.470137      17.744499      18.873465    
       900   282.45362      0.0018         0.27792017    -0.060708868    2586.6908      1484.1247     -2779.2017      20.450926      17.750188      18.877234    
      1000   292.88993      0.002          0.37680745    -0.060616457   -1249.6322      3423.004      -3768.0745      20.516538      17.711799      18.881002    
      1100   316.38244      0.0022         0.47372065    -0.08443884     2653.935      -2904.4627     -4737.2065      20.449491      17.782188      18.884771    
      1200   287.09929      0.0024         0.39978493    -0.069671369   -2963.2315      2409.9416     -3997.8493      20.524581      17.707114      18.88854     
      1300   301.49676      0.0026         0.65574534    -0.090969426    984.59184     -3896.5056     -6557.4534      20.433389      17.807947      18.892308    
      1400   307.58325      0.0028         0.63549995    -0.13731098    -3760.5702     -13.905207     -6354.9995      20.523733      17.731727      18.896077    
      1500   288.45666      0.003          0.62737153    -0.073011262   -2512.2794     -1578.2577     -6273.7153      20.49994       17.754513      18.899846    
      1600   284.65883      0.0032         0.73322394    -0.069972597   -528.91402     -4561.9363     -7332.2394      20.456634      17.78928       18.903614    
      1700   309.04523      0.0034         0.82978491    -0.085179289   -5386.0754      721.35281     -8297.8491      20.562719      17.707458      18.907383    
      1800   300.15945      0.0036         0.74670114    -0.073726729    1796.159      -5882.8473     -7467.0114      20.429864      17.809261      18.911152    
      1900   283.92638      0.0038         0.76018748    -0.013990511   -5130.0178      4058.5926     -7601.8748      20.557287      17.676901      18.91492     
      2000   310.47674      0.004          0.66797496     0.033493262    4458.2677     -2055.4438     -6679.7496      20.423368      17.776244      18.918689    
      2100   304.7545       0.0042         0.64511088     0.073408951    2210.2885      3647.415      -6451.1088      20.477438      17.698425      18.922458    
      2200   291.02669      0.0044         0.66474848     0.04201491     2061.0663      5568.7019     -6647.4848      20.485867      17.676187      18.926226    
      2300   306.93154      0.0046         0.63987671     0.023267109    8194.3973     -139.16513     -6398.7671      20.359104      17.786916      18.929995    
      2400   302.72724      0.0048         0.7848899     -0.03186312    -1033.8658      8006.1465     -7848.899       20.533714      17.65073       18.933764    
      2500   282.7284       0.005          0.74435634    -0.068826658    6024.077       418.23297     -7443.5634      20.399496      17.755978      18.937532    
      2600   308.65051      0.0052         0.83347545    -0.05544652    -220.50008      3467.4494     -8334.7545      20.483021      17.697702      18.941301    
      2700   308.00305      0.0054         0.89747601    -0.085460846    906.76995      109.55096     -8974.7601      20.461491      17.732126      18.94507     
      2800   300.18844      0.0056         1.0430639     -0.10961762     204.55888     -1249.6328     -10430.639      20.457536      17.744448      18.948838    
      2900   288.89614      0.0058         1.224936      -0.18533839    -4903.6721      1579.5192     -12249.36       20.516197      17.699049      18.952607    
      3000   298.16876      0.006          1.2239614     -0.17986616    -464.06696     -6472.2774     -12239.614      20.429963      17.798279      18.956376    
      3100   299.17004      0.0062         1.2955836     -0.12276833    -6885.4843     -804.28638     -12955.836      20.564292      17.694332      18.960144    
      3200   293.39603      0.0064         1.495227      -0.13885093    -2965.5537     -6347.1009     -14952.27       20.449937      17.792883      18.963913    
      3300   298.06686      0.0066         1.4818216     -0.14421839    -4651.3037     -3847.2302     -14818.216      20.490602      17.753011      18.967682    
      3400   300.51487      0.0068         1.3841144     -0.056826405   -3931.7104     -1001.8966     -13841.144      20.519757      17.710714      18.97145     
      3500   296.2157       0.007          1.4699233     -0.001684869    2268.1572     -4675.3429     -14699.233      20.415727      17.780218      18.975219    
      3600   291.14703      0.0072         1.1964017      0.07233511    -4852.8325      4453.7995     -11964.017      20.529394      17.659599      18.978988    
      3700   305.77387      0.0074         1.3345737      0.10787924     5624.6508     -3413.7889     -13345.737      20.379777      17.784661      18.982756    
      3800   284.94468      0.0076         1.2665853      0.029740188   -429.08145      5763.6824     -12665.853      20.498796      17.660245      18.986525    
      3900   284.43328      0.0078         1.2897188      0.033288491    3455.1634      1485.3407     -12897.188      20.400099      17.730434      18.990294    
      4000   299.56051      0.008          1.3089469     -0.020087568    3326.1315      1401.1896     -13089.469      20.412683      17.729156      18.994062    
      4100   310.6072       0.0082         1.3923403     -0.032210599   -657.75627      4935.8321     -13923.403      20.480862      17.672659      18.997831    
      4200   288.14451      0.0084         1.3433089     -0.047644534    6155.0283      26.294351     -13433.089      20.374872      17.743829      19.0016      
      4300   298.61558      0.0086         1.4654163     -0.044416361    129.78848      4112.7029     -14654.163      20.465109      17.686257      19.005368    
      4400   300.12753      0.0088         1.5185931     -0.086283617    2507.7867     -616.34208     -15185.931      20.42392       17.733332      19.009137    
      4500   285.80879      0.009          1.7263466     -0.13326882     338.49214     -964.29494     -17263.466      20.443552      17.722353      19.012906    
      4600   301.16337      0.0092         1.7839622     -0.18762895    -4513.7925      1321.5661     -17839.622      20.508235      17.68274       19.016674    
      4700   311.89265      0.0094         1.8474536     -0.14735351     2124.0387     -7260.505      -18474.536      20.370926      17.814783      19.020443    
      4800   289.08115      0.0096         1.9206733     -0.12465767    -9902.8762      1351.0082     -19206.733      20.579318      17.647865      19.024212    
      4900   292.85032      0.0098         2.1256688     -0.14235016    -833.68164     -9402.568      -21256.688      20.395121      17.815367      19.02798     
      5000   299.28514      0.01           2.0034235     -0.1283099     -6516.9956     -3216.249      -20034.235      20.49921       17.721588      19.031749    
      5100   316.55388      0.0102         2.0921838     -0.04992309    -6084.511      -3302.042      -20921.838      20.492245      17.719914      19.035518    
      5200   277.91495      0.0104         1.9827105     -0.012515185    622.58747     -4499.7427     -19827.105      20.410508      17.760566      19.039286    
      5300   301.02933      0.0106         1.9499024      0.064471356   -3542.6674      2253.4313     -19499.024      20.499584      17.667549      19.043055    
      5400   302.60891      0.0108         1.8819941      0.066094613    3773.125      -2578.2865     -18819.941      20.387298      17.74983       19.046824    
      5500   304.73251      0.011          1.8773407      0.077158922   -1222.7669      3992.7743     -18773.407      20.467346      17.661655      19.050592    
      5600   289.9991       0.0112         1.8027207      0.058902984    4158.9324      910.25421     -18027.207      20.399532      17.707875      19.054361    
      5700   324.81711      0.0114         1.9555637      0.014362122    1822.8554      2199.4047     -19555.637      20.426394      17.693142      19.058129    
      5800   317.42589      0.0116         1.9524261     -0.059985818    733.44726      4652.4278     -19524.261      20.452669      17.668824      19.061898    
      5900   299.72786      0.0118         1.9687773     -0.049235993    5821.1963     -847.41232     -19687.773      20.3642        17.733054      19.065667    
      6000   296.98287      0.012          2.0494758     -0.063333827   -1971.4521      5823.8129     -20494.758      20.497442      17.623625      19.069435    
      6100   303.99242      0.0122         2.0613755     -0.057902001    3335.8856     -2313.0467     -20613.755      20.374881      17.751556      19.073204    
      6200   282.16112      0.0124         2.2412394     -0.09664864    -3147.6927      1673.74       -22412.394      20.453083      17.683472      19.076973    
      6300   292.46711      0.0126         2.2866075     -0.14242833    -1661.7225     -1814.0721     -22866.075      20.451955      17.700351      19.080741    
      6400   310.12665      0.0128         2.3796338     -0.12945425    -1599.0499     -3414.9103     -23796.338      20.433448      17.729934      19.08451     
      6500   299.35953      0.013          2.3606352     -0.10423625    -4934.1138      118.38649     -23606.352      20.45846       17.686805      19.088279    
      6600   292.41117      0.0132         2.351882      -0.032259017    1447.6554     -5278.8187     -23518.82       20.386212      17.758844      19.092047    
      6700   294.88028      0.0134         2.4371892     -0.031346051   -4509.7226      1165.7979     -24371.892      20.499426      17.651479      19.095816    
      6800   268.82537      0.0136         2.3853801     -0.028340594    1899.6535     -2767.4164     -23853.801      20.386757      17.723023      19.099585    
      6900   297.46038      0.0138         2.3981712     -0.0051241108  -526.60186      1213.3593     -23981.712      20.42845       17.683092      19.103353    
      7000   313.29507      0.014          2.3530608      0.0095206453  -405.70645      415.85828     -23530.608      20.425033      17.684058      19.107122    
      7100   299.10838      0.0142         2.4865554     -0.0077367682   1498.5412     -242.73719     -24865.554      20.396204      17.698143      19.110891    
      7200   298.11796      0.0144         2.4543299     -0.054943153   -1135.963       2789.1482     -24543.299      20.446072      17.65211       19.114659    
      7300   307.1036       0.0146         2.5692264     -0.0595094      3670.7479     -2743.466      -25692.264      20.359224      17.736558      19.118428    
      7400   288.47616      0.0148         2.4979174     -0.061353911   -1917.5053      3506.6923     -24979.174      20.45449       17.645275      19.122197    
      7500   297.25034      0.015          2.5992264     -0.027120781    1165.6063     -961.62268     -25992.264      20.387535      17.703791      19.125965    
      7600   307.02101      0.0152         2.5322836     -0.035158244    1518.9343     -980.50104     -25322.836      20.394465      17.702635      19.129734    
      7700   293.68915      0.0154         2.5924587     -0.0041486609  -3070.1177      3288.3619     -25924.587      20.469731      17.634069      19.133503    
      7800   277.747        0.0156         2.6559374     -0.048633394    5484.8186     -6724.1378     -26559.374      20.331441      17.760805      19.137271    
      7900   297.77645      0.0158         2.7719944     -0.083585813   -6159.9551      3476.2065     -27719.944      20.505801      17.621643      19.14104     
      8000   280.94219      0.016          2.7852968     -0.11105142     1833.5546     -4449.3113     -27852.968      20.350292      17.755331      19.144809    
      8100   303.99489      0.0162         2.8788175     -0.095156189   -4288.9697     -111.59169     -28788.175      20.466444      17.653267      19.148577    
      8200   288.45164      0.0164         2.8707861     -0.082235341   -1601.0221     -83.823559     -28707.861      20.431645      17.671097      19.152346    
      8300   324.58861      0.0166         2.8552108     -0.030577318    1776.5191     -3908.744      -28552.108      20.359218      17.733703      19.156115    
      8400   293.5459       0.0168         2.8244694      0.0030760007  -4287.8811      3769.181      -28244.694      20.482794      17.606625      19.159883    
      8500   282.16629      0.017          2.9445228     -0.0097347849   4957.6273     -3365.2441     -29445.228      20.33139       17.738359      19.163652    
      8600   310.30802      0.0172         2.7488513      0.0020810334  -2840.7248      3725.6985     -27488.513      20.464723      17.615246      19.167421    
      8700   293.06422      0.0174         3.0274589     -0.0080524514   2174.455      -1641.8517     -30274.589      20.363552      17.706849      19.171189    
      8800   278.37489      0.0176         2.9600268     -0.092676979    949.57401      1675.2021     -29600.268      20.393558      17.654429      19.174958    
      8900   305.73014      0.0178         3.0490543     -0.05855772    -1338.0057      3239.1414     -30490.543      20.432366      17.631542      19.178727    
      9000   302.95148      0.018          3.0603831     -0.085563814    5415.9176     -4020.4354     -30603.831      20.315599      17.740575      19.182495    
      9100   292.29162      0.0182         3.1794951     -0.064655471   -4470.5531      5330.8825     -31794.951      20.494545      17.58779       19.186264    
      9200   303.03379      0.0184         3.231391      -0.109373       3486.4089     -4588.2084     -32313.91       20.325845      17.733822      19.190033    
      9300   313.45399      0.0186         3.2503851     -0.086746332   -2845.0785      674.98496     -32503.851      20.441593      17.6542        19.193801    
      9400   309.83408      0.0188         3.3427191     -0.083677427   -1680.772      -1872.0493     -33427.191      20.407447      17.674705      19.19757     
      9500   312.64117      0.019          3.3834203     -0.085587597    234.57027     -3908.2345     -33834.203      20.374657      17.708355      19.201339    
      9600   307.47189      0.0192         3.2828747     -0.034989487   -4978.73        1980.5146     -32828.747      20.460324      17.635623      19.205107    
      9700   301.66946      0.0194         3.3911044     -0.0068888312   3571.5248     -5573.9236     -33911.044      20.322743      17.741795      19.208876    
      9800   295.38796      0.0196         3.4283973     -0.04404767    -4505.0614      2123.5808     -34283.973      20.471807      17.608188      19.212645    
      9900   310.67695      0.0198         3.3547598     -0.023467231    554.52736     -1766.3844     -33547.598      20.379778      17.691738      19.216413    
     10000   306.06118      0.02           3.3987938     -0.0055908139   1004.7823     -554.66166     -33987.938      20.37154       17.681113      19.220182    
     10100   301.03574      0.0202         3.338073       0.013792233   -3088.3547      4144.8587     -33380.73       20.44889       17.601559      19.223951    
     10200   302.1172       0.0204         3.3120096      0.041365391    5715.5549     -3686.885      -33120.096      20.300541      17.726177      19.227719    
     10300   311.20625      0.0206         3.4332063     -0.0052394225  -2562.3545      5869.9253     -34332.063      20.446563      17.5922        19.231488    
     10400   295.37666      0.0208         3.4577232     -0.057503561    5522.9286     -1289.1314     -34577.232      20.318192      17.693005      19.235257    
     10500   294.77882      0.021          3.467038      -0.060770589   -61.014051      4859.5809     -34670.38       20.418448      17.602725      19.239025    
     10600   318.01204      0.0212         3.4226066     -0.026305561    1543.4592      1839.2903     -34226.066      20.371819      17.655359      19.242794    
     10700   298.86406      0.0214         3.4751479      0.0022671625   4464.7588     -1216.7281     -34751.479      20.354206      17.666976      19.246563    
     10800   308.22595      0.0216         3.6300629     -0.062089653   -3684.8077      4659.8016     -36300.629      20.464395      17.573448      19.250331    
     10900   302.66721      0.0218         3.5703001     -0.087150399    3947.3649     -3675.2445     -35703.001      20.305597      17.724173      19.2541      
     11000   296.66523      0.022          3.8153574     -0.11013378    -3978.617       1020.5855     -38153.574      20.440289      17.622386      19.257869    
     11100   290.63602      0.0222         3.8575846     -0.16678045    -2054.0204     -2749.5313     -38575.846      20.41344       17.648972      19.261637    
     11200   318.12427      0.0224         3.8576156     -0.11141598    -2536.5035     -4417.6437     -38576.156      20.367397      17.703532      19.265406    
     11300   280.96558      0.0226         3.9302698     -0.087717194   -5357.4457     -213.94255     -39302.698      20.428934      17.635836      19.269175    
     11400   299.3047       0.0228         4.009078      -0.075692838   -737.62834     -5553.9871     -40090.78       20.375457      17.683677      19.272943    
     11500   286.86176      0.023          3.9217429     -0.05015229    -3765.6487      1336.1842     -39217.429      20.444518      17.614794      19.276712    
     11600   297.41275      0.0232         3.9237209      0.0057535465   3057.6153     -5314.7584     -39237.209      20.28361       17.736459      19.280481    
     11700   300.18096      0.0234         3.9030284      0.024193394   -3134.0669      3654.4909     -39030.284      20.446192      17.579169      19.284249    
     11800   298.49997      0.0236         3.8360122      0.049196195    2829.1543      1683.2879     -38360.122      20.357424      17.633271      19.288018    
     11900   316.10381      0.0238         3.7758396      0.066142905    5976.4053      1669.0469     -37758.396      20.292507      17.673992      19.291787    
     12000   292.994        0.024          3.8406154      0.047615794    2716.6507      6231.1361     -38406.154      20.388367      17.572855      19.295555    
     12100   305.76477      0.0242         3.7645606      0.021423225    5328.3231      2420.2435     -37645.606      20.332797      17.627054      19.299324    
     12200   320.11051      0.0244         3.7642352      0.031854721    846.02296      4814.365      -37642.352      20.373266      17.61335       19.303093    
     12300   323.21263      0.0246         4.0004441     -0.053200671    3311.1321     -255.76333     -40004.441      20.339705      17.649653      19.306861    
     12400   301.70894      0.0248         4.0153703     -0.13086208    -661.72932      2189.4188     -40153.703      20.400257      17.597783      19.31063     
     12500   282.36866      0.025          4.1535644     -0.14483244    -416.1744       20.832957     -41535.644      20.35788       17.640997      19.314399    
     12600   307.40669      0.0252         4.1836117     -0.14514295     522.49595     -3208.5359     -41836.117      20.337083      17.677954      19.318167    
     12700   285.66631      0.0254         4.3386432     -0.12280072    -4801.8772      1329.8555     -43386.432      20.441885      17.593398      19.321936    
     12800   298.10741      0.0256         4.3834361     -0.1461145     -226.42705     -5525.7333     -43834.361      20.328467      17.697551      19.325705    
     12900   305.35582      0.0258         4.3044737     -0.071209049   -4475.759      -1785.6068     -43044.737      20.392999      17.642747      19.329473    
     13000   296.93715      0.026          4.4493739     -0.045016086   -2647.146      -3166.7352     -44493.739      20.389126      17.650244      19.333242    
     13100   288.40936      0.0262         4.4069262     -0.051579456   -1771.8041     -2009.1759     -44069.262      20.369105      17.644748      19.337011    
     13200   290.45394      0.0264         4.3711833     -0.0059761352  -2673.8249      1020.8052     -43711.833      20.378078      17.627188      19.340779    
     13300   306.0839       0.0266         4.3101636      0.027750685    5544.505      -3398.845      -43101.636      20.283178      17.688411      19.344548    
     13400   306.02431      0.0268         4.2447917      0.079010123   -3486.0485      8191.0527     -42447.917      20.462898      17.50442       19.348317    
     13500   293.59706      0.027          4.3194631      0.048378213    9568.5324     -681.07882     -43194.631      20.214494      17.700558      19.352085    
     13600   317.89508      0.0272         4.2803072      0.0052966325   2006.0006      6926.6141     -42803.072      20.374007      17.567498      19.355854    
     13700   310.75431      0.0274         4.354299      -0.015498171    2911.7654      2507.5784     -43542.99       20.337614      17.601513      19.359623    
     13800   293.82572      0.0276         4.4905332     -0.084537263    3378.2681      614.27519     -44905.332      20.31426       17.63593       19.363391    
     13900   291.70414      0.0278         4.440655      -0.08854263     203.68648      2569.3916     -44406.55       20.369359      17.597968      19.36716     
     14000   315.31389      0.028          4.5080559     -0.0595854      1604.8687     -1336.818      -45080.559      20.344773      17.639334      19.370929    
     14100   310.17359      0.0282         4.6769829     -0.098414194   -1953.0315      664.21056     -46769.829      20.368278      17.614201      19.374697    
     14200   292.77103      0.0284         4.6991111     -0.12497939    -799.40624     -1833.972      -46991.111      20.3552        17.629381      19.378466    
     14300   313.82103      0.0286         4.8448342     -0.13804484    -1847.5765     -3135.7007     -48448.342      20.365142      17.644368      19.382235    
     14400   300.96616      0.0288         4.9448809     -0.16008454    -5676.1903     -588.81851     -49448.809      20.427902      17.587751      19.386003    
     14500   305.43252      0.029          4.9408335     -0.12152867    -111.78702     -6962.0518     -49408.335      20.29457       17.706661      19.389772    
     14600   296.34336      0.0292         4.8640184     -0.043690341   -7134.8057      1114.2465     -48640.184      20.454854      17.566246      19.393541    
     14700   283.40561      0.0294         4.9168475      0.011849953    1946.6671     -6031.256      -49168.475      20.310278      17.66625       19.397309    
     14800   305.29888      0.0296         4.9396848     -0.0070131055  -3984.0553      1568.7407     -49396.848      20.39814       17.586565      19.401078    
     14900   314.65143      0.0298         4.8585553      0.0048678815   1614.2844     -612.5505      -48585.553      20.311464      17.638561      19.404847    
     15000   286.2018       0.03           4.8071725      0.044391796    3171.0359      1396.2641     -48071.725      20.333844      17.592885      19.408615    
     15100   285.56319      0.0302         4.8678307      0.040516529    1634.0527      6075.5687     -48678.307      20.352957      17.557132      19.412384    
     15200   296.56589      0.0304         4.8468061      0.0066914715   6483.0229      755.20792     -48468.061      20.259225      17.645431      19.416152    
     15300   305.91723      0.0306         4.8621052     -0.0059616809   305.18994      6287.6081     -48621.052      20.390533      17.535647      19.419921    
     15400   290.67326      0.0308         4.8921337     -0.021909822    4078.2043      846.73846     -48921.337      20.284852      17.624866      19.42369     
     15500   282.2227       0.031          4.8238005      0.00056815909  1029.8999      2995.2493     -48238.005      20.347092      17.575867      19.427458    
     15600   313.62386      0.0312         5.0509052     -0.042202692    1643.6375     -1216.6841     -50509.052      20.32831       17.621812      19.431227    
     15700   298.47722      0.0314         5.2690292     -0.18037244    -2757.9185     -1554.2682     -52690.292      20.370756      17.605314      19.434996    
     15800   297.80319      0.0316         5.4544595     -0.26367874    -5851.1715     -4236.0286     -54544.595      20.380354      17.632565      19.438764    
     15900   306.0152       0.0318         5.5623412     -0.27629322    -4473.6634     -10524.018     -55623.412      20.323559      17.710502      19.442533    
     16000   285.96025      0.032          5.5311882     -0.17318003    -13073.721     -3034.6365     -55311.882      20.488102      17.574168      19.446302    
     16100   291.17352      0.0322         5.5535219     -0.068247053   -1971.9031     -11105.782     -55535.219      20.293176      17.720061      19.45007     
     16200   294.17201      0.0324         5.4291268      0.014803149   -7268.3371     -1504.865      -54291.268      20.409477      17.591997      19.453839    
     16300   292.88942      0.0326         5.2929614      0.11278378    -309.78863     -3334.2571     -52929.614      20.332042      17.63581       19.457608    
     16400   300.18497      0.0328         5.4133633      0.090869984   -476.60693     -325.26708     -54133.633      20.333391      17.605411      19.461376    
     16500   291.82226      0.033          5.2442641      0.057833811   -99.976837      3489.4771     -52442.641      20.339247      17.574463      19.465145    
     16600   298.99114      0.0332         5.1151463      0.11926719     6483.7259     -141.89913     -51151.463      20.270674      17.628714      19.468914    
     16700   296.79575      0.0334         5.2147202      0.091157804    1066.4445      6306.0561     -52147.202      20.368601      17.527181      19.472682    
     16800   291.62363      0.0336         5.2191083      0.0244062      5394.6216      1297.0642     -52191.083      20.264824      17.612187      19.476451    
     16900   310.34541      0.0338         5.2164448     -0.015839813    3611.1652      2699.4005     -52164.448      20.288122      17.60068       19.48022     
     17000   292.18562      0.034          5.4008202     -0.075384557   -718.73201      5005.889      -54008.202      20.371559      17.537001      19.483988    
     17100   296.66953      0.0342         5.5335189     -0.1502471      3573.9141     -3273.4138     -55335.189      20.265462      17.64456       19.487757    
     17200   308.3116       0.0344         5.6086715     -0.17538247    -5955.0727      2219.711      -56086.715      20.405209      17.554529      19.491526    
     17300   290.36117      0.0346         5.7127566     -0.16627165     63.158069     -5375.9861     -57127.566      20.282898      17.659074      19.495294    
     17400   304.62298      0.0348         5.7964107     -0.14414805    -5378.9618     -1358.0489     -57964.107      20.382148      17.586126      19.499063    
     17500   299.40228      0.035          5.7666135     -0.097917838   -2970.0277     -3539.4542     -57666.135      20.323937      17.63615       19.502832    
     17600   283.97898      0.0352         5.7392103     -0.028179382   -1654.9392     -3609.6342     -57392.103      20.311369      17.627691      19.5066      
     17700   291.16544      0.0354         5.7472916      0.0092055522  -3790.9855      1091.6102     -57472.916      20.384927      17.557185      19.510369    
     17800   316.53855      0.0356         5.7555387      0.0095977905   2709.6579     -3270.9094     -57555.387      20.275329      17.632185      19.514138    
     17900   299.34638      0.0358         5.7633318     -0.0050380732  -42.526002      2971.7473     -57633.318      20.322083      17.571042      19.517906    
     18000   282.01528      0.036          5.6813837      0.014993496    2167.6973      3755.5262     -56813.837      20.315483      17.55008       19.521675    
     18100   291.82651      0.0362         5.5680644      0.078398012    4712.4372      3344.1019     -55680.644      20.271213      17.584268      19.525444    
     18200   288.76718      0.0364         5.5493755      0.10481886     3346.7705      5793.0757     -55493.755      20.291614      17.556969      19.529212    
     18300   284.77459      0.0366         5.739952       0.015757736    5428.7757      1394.7759     -57399.52       20.268899      17.579995      19.532981    
     18400   305.22343      0.0368         5.8495774     -0.1170941     -705.84189      4136.7417     -58495.774      20.34516       17.543036      19.53675     
     18500   294.22915      0.037          5.892966      -0.15128463     1537.9635      503.8871      -58929.66       20.278125      17.607028      19.540518    
     18600   283.9438       0.0372         5.9525306     -0.12586799     172.07472     -1287.5041     -59525.306      20.309318      17.588594      19.544287    
     18700   308.71047      0.0374         5.9710631     -0.080579051   -3819.9851     -690.06469     -59710.631      20.354373      17.566176      19.548056    
     18800   316.1092       0.0376         6.0987305     -0.081923268   -1544.8626     -3685.0916     -60987.305      20.291867      17.63507       19.551824    
     18900   292.78123      0.0378         6.2012325     -0.12667695    -2840.6491     -2441.0319     -62012.325      20.326593      17.595626      19.555593    
     19000   296.9269       0.038          6.2428907     -0.12877211    -3201.2173     -2280.7181     -62428.907      20.3297        17.594684      19.559362    
     19100   313.80316      0.0382         6.1603338     -0.066762118   -3398.9595     -1781.8602     -61603.338      20.328998      17.596432      19.56313     
     19200   282.09117      0.0384         6.1953323      0.0018708882  -1012.1231     -2140.5865     -61953.323      20.301104      17.60037       19.566899    
     19300   309.60831      0.0386         6.262935      -0.016588817   -1407.4843     -1466.8593     -62629.35       20.307357      17.592024      19.570668    
     19400   288.50674      0.0388         6.0186435      0.035237786   -1364.3534      1006.2527     -60186.435      20.324391      17.564164      19.574436    
     19500   304.05414      0.039          6.2694426      0.037294404    2700.6897     -1042.7681     -62694.426      20.253685      17.614069      19.578205    
     19600   277.04985      0.0392         6.2088972     -0.048119733   -73.655795      3879.2517     -62088.972      20.327631      17.532645      19.581974    
     19700   310.90335      0.0394         6.2180583     -0.017882422    5205.5788      295.2716      -62180.583      20.237002      17.605632      19.585742    
     19800   297.31925      0.0396         6.2257585     -0.033748407    2172.5168      4760.637      -62257.585      20.304122      17.534483      19.589511    
     19900   292.4391       0.0398         6.0462221      0.057685422    5712.4685      2327.3773     -60462.221      20.240651      17.572748      19.59328     
     20000   318.51195      0.04           6.202745       0.055852675    1360.534       3741.7188     -62027.45       20.299539      17.538651      19.597048    
     20100   287.21665      0.0402         6.2183917     -0.028333212    2076.8809      3251.893      -62183.917      20.274535      17.574471      19.600817    
     20200   286.24914      0.0404         6.4273012     -0.098762738    2208.0228     -71.703502     -64273.012      20.255541      17.597702      19.604586    
     20300   302.44661      0.0406         6.5054957     -0.1863673     -1843.6899      502.52895     -65054.957      20.324382      17.560964      19.608354    
     20400   300.80444      0.0408         6.5162162     -0.13682601     384.28889     -3656.983      -65162.162      20.276953      17.612789      19.612123    
     20500   319.20425      0.041          6.6160849     -0.10945262    -3429.5354     -2401.7885     -66160.849      20.323642      17.577395      19.615892    
     20600   299.39504      0.0412         6.5676975     -0.065332078   -1760.0474     -3875.0593     -65676.975      20.288677      17.610078      19.61966     
     20700   283.34857      0.0414         6.5764635     -0.015688913   -3107.299      -1646.3729     -65764.635      20.310651      17.580156      19.623429    
     20800   293.95803      0.0416         6.7197867     -0.04887532    -1523.4862     -2680.3848     -67197.867      20.289681      17.590899      19.627198    
     20900   299.66305      0.0418         6.4632737     -0.0028689496  -674.05916     -2463.9223     -64632.737      20.290537      17.586499      19.630966    
     21000   293.04967      0.042          6.5382751      0.072324864   -2866.4688      1867.838      -65382.751      20.336942      17.538864      19.634735    
     21100   280.18399      0.0422         6.5855533      0.014756215    4747.3568     -3038.5357     -65855.533      20.198151      17.628533      19.638504    
     21200   302.99275      0.0424         6.5670684     -0.0015194247  -3435.832       7012.1777     -65670.684      20.368305      17.473595      19.642272    
     21300   300.07269      0.0426         6.5063864     -0.0046160017   8211.1442     -2269.7396     -65063.864      20.166111      17.63964       19.646041    
     21400   307.31052      0.0428         6.7967199     -0.052752522   -1571.0334      6713.9838     -67967.199      20.332037      17.491668      19.64981     
     21500   297.95382      0.043          6.6965761     -0.1161872      2638.2281      1610.211      -66965.761      20.251165      17.563218      19.653578    
     21600   301.60298      0.0432         6.6683389     -0.035439575    2881.9808     -111.57465     -66683.389      20.246227      17.577672      19.657347    
     21700   302.71781      0.0434         6.7201684     -0.016615699   -3047.5743      3084.0218     -67201.684      20.332037      17.517899      19.661116    
     21800   288.78805      0.0436         6.9279589     -0.062111181    3350.2631     -4315.0141     -69279.589      20.204334      17.629442      19.664884    
     21900   301.98871      0.0438         6.8032678     -0.10235133    -4289.0472      3060.0363     -68032.678      20.346371      17.512693      19.668653    
     22000   304.63804      0.044          6.9580801     -0.065111138    2383.9037     -3434.6258     -69580.801      20.229768      17.610171      19.672422    
     22100   290.46574      0.0442         6.9259095     -0.07491786    -3057.1635      707.23219     -69259.095      20.305829      17.540317      19.67619     
     22200   295.31177      0.0444         7.0817994     -0.064451289   -1013.0265     -2201.6432     -70817.994      20.282191      17.576594      19.679959    
     22300   316.46046      0.0446         6.9342507     -0.067363529    336.88014     -3448.9175     -69342.507      20.257119      17.595104      19.683728    
     22400   292.75724      0.0448         6.9976861      0.013576755   -4191.9425      2487.3294     -69976.861      20.329912      17.508194      19.687496    
     22500   281.7191       0.045          6.8877213      0.022769682    5268.7197     -4803.5306     -68877.213      20.177989      17.632719      19.691265    
     22600   299.39519      0.0452         6.9870438      0.040317685   -5147.1891      4780.7083     -69870.438      20.378924      17.470536      19.695034    
     22700   280.8335       0.0454         6.9371385     -0.013323082    5229.7201     -4403.6162     -69371.385      20.186454      17.621928      19.698802    
     22800   274.82878      0.0456         6.9596813      0.0054442878  -1747.4541      3745.8187     -69596.813      20.304088      17.497178      19.702571    
     22900   292.32319      0.0458         6.9947427     -0.023946479    1137.3505      1821.8317     -69947.427      20.260243      17.547014      19.70634     
     23000   301.45143      0.046          6.907903       0.005979025    3544.6066     -1032.3866     -69079.03       20.217238      17.586542      19.710108    
     23100   285.56701      0.0462         7.1455557     -0.037725089   -2940.9435      4704.8387     -71455.557      20.331593      17.477147      19.713877    
     23200   296.71335      0.0464         7.1401012     -0.11323169     5755.9124     -4859.1867     -71401.012      20.16666       17.635059      19.717646    
     23300   294.37823      0.0466         7.2426238     -0.10517722    -5482.0261      5176.2916     -72426.238      20.369085      17.465181      19.721414    
     23400   307.00322      0.0468         7.2293692     -0.10288591     3699.4396     -4360.483      -72293.692      20.186451      17.622416      19.725183    
     23500   295.0864       0.047          7.1784089     -0.016677282   -2521.388       888.29281     -71784.089      20.30693       17.529287      19.728952    
     23600   298.77797      0.0472         7.3082207     -0.023570042   -599.56196     -1351.1977     -73082.207      20.25714       17.559548      19.73272     
     23700   304.28505      0.0474         7.3265557     -0.060352517   -1551.8719     -1064.9419     -73265.557      20.26896       17.555923      19.736489    
     23800   306.81415      0.0476         7.2876016     -0.041047436   -1864.0061      1159.5615     -72876.016      20.295122      17.534976      19.740258    
     23900   290.0926       0.0478         7.2599889     -0.0016400996   3704.9383     -3850.8056     -72599.889      20.195924      17.601374      19.744026    
     24000   294.82471      0.048          7.4141786     -0.01777464    -3370.9015      4688.343      -74141.786      20.349489      17.458131      19.747795    
     24100   312.0832       0.0482         7.3136219     -0.043510915    5480.0903     -3660.4624     -73136.219      20.155656      17.627238      19.751564    
     24200   291.66082      0.0484         7.2927376      0.01044596    -2428.6648      4758.6802     -72927.376      20.311364      17.480149      19.755332    
     24300   297.38362      0.0486         7.3339287      0.0095579895   2902.9901      58.209335     -73339.287      20.235395      17.543345      19.759101    
     24400   306.39726      0.0488         7.4392855     -0.02785665     2197.3177     -948.53696     -74392.855      20.235559      17.549934      19.76287     
     24500   318.84651      0.049          7.2322892     -0.013414761   -2707.8901      4310.5435     -72322.892      20.308662      17.494038      19.766638    
     24600   296.79546      0.0492         7.4166842      0.018498342    4790.2479     -2910.3343     -74166.842      20.181881      17.597946      19.770407    
     24700   292.94956      0.0494         7.4815873     -0.068380775   -3970.604       4726.8777     -74815.873      20.338398      17.460996      19.774175    
     24800   318.34166      0.0496         7.5094592     -0.079662175    2510.6488     -4113.422      -75094.592      20.192784      17.604347      19.777944    
     24900   303.53628      0.0498         7.4653438     -0.066328777   -2438.7543     -88.071195     -74653.438      20.291661      17.521335      19.781713    
     25000   300.19697      0.05           7.7638695     -0.087217834   -2601.5103     -1234.0958     -77638.695      20.27212       17.543103      19.785481    
     25100   295.92884      0.0502         7.6333995     -0.12790262    -211.30827     -2987.0255     -76333.995      20.25439       17.561951      19.78925     
     25200   287.8279       0.0504         7.5929582     -0.020172804   -2264.7649     -546.24586     -75929.582      20.28785       17.520848      19.793019    
     25300   300.41528      0.0506         7.6622536     -0.0040409808   485.24158     -2224.7338     -76622.536      20.242436      17.551296      19.796787    
     25400   304.04549      0.0508         7.5351626      0.038820595    275.13653      1765.3619     -75351.626      20.266617      17.514806      19.800556    
     25500   296.54607      0.051          7.6741769      0.014920413    2373.8328      3109.5591     -76741.769      20.239228      17.507607      19.804325    
     25600   298.40826      0.0512         7.5489804     -0.008872318    5134.6949      2412.9386     -75489.804      20.212855      17.521132      19.808093    
     25700   303.34062      0.0514         7.4511992      0.074264725    1953.6453      6623.0697     -74511.992      20.273827      17.466771      19.811862    
     25800   298.82955      0.0516         7.7979835     -0.023090819    5919.9448     -277.39394     -77979.835      20.164095      17.563572      19.815631    
     25900   294.53903      0.0518         7.6747095     -0.1069366     -1560.4106      2601.1332     -76747.095      20.282183      17.492609      19.819399    
     26000   316.62516      0.052          7.8837682     -0.10791071    -1220.5746     -4589.8796     -78837.682      20.242971      17.566315      19.823168    
     26100   277.15026      0.0522         8.0218598     -0.18690997    -6060.7914     -2659.969      -80218.598      20.312967      17.521896      19.826937    
     26200   292.01645      0.0524         8.0859086     -0.16103827    -4639.3736     -5655.0296     -80859.086      20.256775      17.577783      19.830705    
     26300   289.20645      0.0526         7.9389369     -0.091386148   -2999.1575     -4573.9912     -79389.369      20.25925       17.565767      19.834474    
     26400   308.37476      0.0528         7.8643347      0.05732583    -4399.3766     -1241.123      -78643.347      20.300007      17.510703      19.838243    
     26500   282.91757      0.053          7.9194482      0.074206207    583.0413      -3105.904      -79194.482      20.211192      17.562226      19.842011    
     26600   305.04259      0.0532         7.844325       0.048704114   -2000.3637      1096.2316     -78443.25       20.278348      17.500315      19.84578     
     26700   307.644        0.0534         7.8867091      0.025233732    3689.521       347.82044     -78867.091      20.204785      17.52803       19.849549    
     26800   312.92211      0.0536         7.8546337      0.003218714    3101.788       4536.0896     -78546.337      20.224227      17.486996      19.853317    
     26900   314.95788      0.0538         7.8812979      0.0093169724   4798.6017      4927.4753     -78812.979      20.201639      17.497678      19.857086    
     27000   297.51224      0.054          7.7341651      0.032494668    7757.8172      4392.8598     -77341.651      20.180294      17.513705      19.860855    
     27100   310.631        0.0542         8.0040203      0.0030725483   1093.059       7140.8566     -80040.203      20.276626      17.435622      19.864623    
     27200   315.04904      0.0544         8.0644488     -0.1265214      5512.1535     -2784.1571     -80644.488      20.161212      17.572073      19.868392    
     27300   307.59259      0.0546         8.1139659     -0.12962777    -4103.1358      1783.3765     -81139.659      20.301104      17.491303      19.872161    
     27400   290.90959      0.0548         8.2077813     -0.13599733    -1454.1863     -3059.3546     -82077.813      20.243312      17.543257      19.875929    
     27500   309.83967      0.055          8.3381001     -0.12727743    -3671.7538     -3827.8341     -83381.001      20.269024      17.536673      19.879698    
     27600   309.72725      0.0552         8.2941547     -0.11243721    -3666.1498     -2767.3829     -82941.547      20.267217      17.535759      19.883467    
     27700   298.22122      0.0554         8.2939296     -0.044455809   -922.42814     -1993.1815     -82939.296      20.243998      17.528233      19.887235    
     27800   293.78672      0.0556         8.1548108      0.033385098   -786.52447     -516.71551     -81548.108      20.230476      17.519827      19.891004    
     27900   312.88298      0.0558         8.1831017      0.083863117    597.73883     -640.61079     -81831.017      20.214589      17.530597      19.894773    
     28000   285.96446      0.056          8.2799181      0.0096730724  -157.91992      2350.6862     -82799.181      20.250401      17.489225      19.898541    
     28100   318.65492      0.0562         8.2644867     -0.036953027    1572.0841     -541.43793     -82644.867      20.206027      17.525676      19.90231     
     28200   319.39673      0.0564         8.3160957     -0.050608594    55.383982      3023.0452     -83160.957      20.227971      17.50012       19.906079    
     28300   295.1611       0.0566         8.190927      -0.0066055257   3930.4449      2484.5352     -81909.27       20.186953      17.511211      19.909847    
     28400   303.39209      0.0568         8.1902706      0.057740823    3622.6345      4500.0295     -81902.706      20.210362      17.475904      19.913616    
     28500   289.50368      0.057          8.223199       0.030260999    1809.4757      5722.5821     -82231.99       20.223903      17.467189      19.917385    
     28600   303.03185      0.0572         8.3693451     -0.0383046      5647.4253     -1252.0915     -83693.451      20.13915       17.562689      19.921153    
     28700   316.56337      0.0574         8.3855461     -0.10558805    -3751.238       4465.2414     -83855.461      20.31164       17.432061      19.924922    
     28800   303.77457      0.0576         8.6347565     -0.14952784     3090.5578     -3633.1614     -86347.565      20.169773      17.562138      19.928691    
     28900   306.87692      0.0578         8.5615945     -0.16328722    -3529.1404      204.454       -85615.945      20.255933      17.497618      19.932459    
     29000   303.77691      0.058          8.4885623     -0.037117487   -1615.9747     -2878.6678     -84885.623      20.233478      17.536259      19.936228    
     29100   303.46956      0.0582         8.6177417     -0.015511791   -1902.9488     -3792.066      -86177.417      20.237298      17.526583      19.939997    
     29200   287.26811      0.0584         8.6157749     -0.033072308   -4315.9302      321.20362     -86157.749      20.251988      17.504185      19.943765    
     29300   308.93067      0.0586         8.4357695      0.018116391    122.94026     -2899.0705     -84357.695      20.197591      17.549335      19.947534    
     29400   299.64077      0.0588         8.3054959      0.12203616    -1955.6831      1762.8126     -83054.959      20.257381      17.46736       19.951303    
     29500   298.47891      0.059          8.483001       0.097308136    1426.1491      817.95178     -84830.01       20.184316      17.514054      19.955071    
     29600   289.90575      0.0592         8.4651372     -0.01303342     3071.2074      1449.7353     -84651.372      20.18119       17.508849      19.95884     
     29700   316.26386      0.0594         8.3055116      0.01365862     1489.9432      4222.55       -83055.116      20.229318      17.451391      19.962609    
     29800   278.11739      0.0596         8.4035492      0.038008578    3956.0036      2121.6523     -84035.492      20.168768      17.498087      19.966377    
     29900   296.52685      0.0598         8.4005993      0.0094854107   1758.0643      2007.3395     -84005.993      20.171481      17.509431      19.970146    
     30000   309.13627      0.06           8.5844725     -0.060681938    1023.3403      620.2176      -85844.725      20.199811      17.506179      19.973915    
     30100   307.03422      0.0602         8.7612491     -0.18178445    -1886.6507     -608.94882     -87612.491      20.247548      17.484198      19.977683    
     30200   316.04372      0.0604         8.712073      -0.16427242    -1418.9773     -2983.5725     -87120.73       20.207028      17.532318      19.981452    
     30300   304.39567      0.0606         8.7690506     -0.095072888   -1682.7174     -2566.1939     -87690.506      20.208913      17.533015      19.985221    
     30400   313.61948      0.0608         8.8659409     -0.078938512   -2571.098      -1698.7295     -88659.409      20.244046      17.492252      19.988989    
     30500   312.96692      0.061          8.8899673     -0.07829793    -549.05708     -2555.4539     -88899.673      20.194698      17.526617      19.992758    
     30600   316.41116      0.0612         8.6041232      0.021185744   -419.19389     -326.15337     -86041.232      20.21072       17.50715       19.996527    
     30700   315.91886      0.0614         8.9022415      0.05308233     268.20211     -262.10855     -89022.415      20.213772      17.491603      20.000295    
     30800   293.77556      0.0616         8.7201463     -0.014710069    1133.3628      589.87009     -87201.463      20.202281      17.485331      20.004064    
     30900   297.17532      0.0618         8.65248        0.067478503    1558.1118      1951.9453     -86524.8        20.19049       17.497594      20.007833    
     31000   296.71054      0.062          8.8958943     -0.019210095    2470.7818     -1048.6927     -88958.943      20.158763      17.524926      20.011601    
     31100   290.51515      0.0622         8.8792917     -0.077582228   -1151.8761      2190.4447     -88792.917      20.25637       17.438168      20.01537     
     31200   307.71723      0.0624         8.7415842     -0.032558633    1571.8158     -829.30124     -87415.842      20.173437      17.517524      20.019139    
     31300   313.06034      0.0626         9.1010173     -0.067247232   -932.00565     -714.71489     -91010.173      20.196016      17.504466      20.022907    
     31400   297.34447      0.0628         8.9862001     -0.12281117    -1595.078      -793.44965     -89862.001      20.2061        17.489601      20.026676    
     31500   299.06495      0.063          8.816598       0.003539201   -1583.3004      251.86138     -88165.98       20.230249      17.473566      20.030445    
     31600   307.59954      0.0632         8.9906408      0.02358869    -694.3393      -2127.7461     -89906.408      20.1843        17.518509      20.034213    
     31700   305.44854      0.0634         9.2552823     -0.093013859   -147.45462     -965.58627     -92552.823      20.206452      17.486794      20.037982    
     31800   307.98791      0.0636         9.0311529     -0.12724279    -1015.1756      686.34696     -90311.529      20.23554       17.468719      20.041751    
     31900   287.60137      0.0638         8.8977544      0.033832004    459.40997     -1529.185      -88977.544      20.175061      17.515058      20.045519    
     32000   294.0767       0.064          9.0734043      0.064067598   -1969.8267     -387.46423     -90734.043      20.212029      17.484176      20.049288    
     32100   309.64195      0.0642         9.101753      -0.015709259   -308.8078      -1502.9584     -91017.53       20.201261      17.495326      20.053057    
     32200   282.73889      0.0644         9.0106905     -0.033270748   -1806.4587      1642.1726     -90106.905      20.231097      17.449502      20.056825    
     32300   289.41253      0.0646         9.0589796     -0.006318706    2339.9071     -1674.3295     -90589.796      20.140169      17.528108      20.060594    
     32400   303.1449       0.0648         8.9022495      0.048800827   -250.58422      1761.9044     -89022.495      20.213513      17.465236      20.064363    
     32500   303.01248      0.065          9.2183255     -0.0018878614   197.92527      1343.4031     -92183.255      20.209058      17.460987      20.068131    
     32600   287.20674      0.0652         9.0897249     -0.098031178    1184.002      -63.652928     -90897.249      20.170122      17.4984        20.0719      
     32700   293.13244      0.0654         9.1095536     -0.023872598    625.19444     -897.64461     -91095.536      20.172801      17.503288      20.075669    
     32800   313.83736      0.0656         9.2741211     -0.073042416   -2687.6176     -724.10939     -92741.211      20.244144      17.461241      20.079437    
     32900   302.26072      0.0658         9.4897009     -0.14562582    -1478.3073     -2979.2219     -94897.009      20.204132      17.501901      20.083206    
     33000   309.07632      0.066          9.3645318     -0.16158992    -2380.7041     -2181.2115     -93645.318      20.17706       17.506279      20.086975    
     33100   305.25577      0.0662         9.2039974      0.0041163494  -613.41606     -1075.6677     -92039.974      20.199576      17.479982      20.090743    
     33200   303.2444       0.0664         9.277755       0.08114504     338.84665     -930.97084     -92777.55       20.190276      17.476538      20.094512    
     33300   277.19966      0.0666         9.2432811      0.05533522     154.81025      605.02556     -92432.811      20.180496      17.46913       20.098281    
     33400   294.11104      0.0668         9.2956181      0.0075870908  -71.808764     -1159.5589     -92956.181      20.158884      17.505175      20.102049    
     33500   300.15484      0.067          9.3538939     -0.049846889   -729.22524      1474.0353     -93538.939      20.214366      17.452621      20.105818    
     33600   288.56508      0.0672         9.2918224     -0.030384063    1153.2897     -262.93987     -92918.224      20.157931      17.48705       20.109587    
     33700   302.37229      0.0674         9.2538644      0.014852545   -1994.0676      2367.9113     -92538.644      20.193143      17.469657      20.113355    
     33800   290.60375      0.0676         9.4168539     -0.012948642    1359.7745     -1605.3606     -94168.539      20.154901      17.507868      20.117124    
     33900   293.65042      0.0678         9.5076439     -0.097433206   -2188.1005     -424.39445     -95076.439      20.230469      17.452348      20.120892    
     34000   309.35529      0.068          9.5245608     -0.11715324    -2960.6058     -2590.7915     -95245.608      20.201289      17.500262      20.124661    
     34100   297.63036      0.0682         9.5302216     -0.080762274   -941.73066     -3736.9787     -95302.216      20.148942      17.533305      20.12843     
     34200   299.80991      0.0684         9.4782891     -0.012741492   -4139.6672     -550.93114     -94782.891      20.226003      17.45798       20.132198    
     34300   301.21821      0.0686         9.326873       0.07093664     546.42436     -1425.113      -93268.73       20.191796      17.471372      20.135967    
     34400   308.89495      0.0688         9.3217774      0.11201918    -277.84727      1357.7284     -93217.774      20.178982      17.469557      20.139736    
     34500   288.74917      0.069          9.332866       0.070683725    3362.6311      784.68217     -93328.66       20.126357      17.485612      20.143504    
     34600   318.15244      0.0692         9.6384736     -0.06601399     1186.912       1800.2843     -96384.736      20.188266      17.440307      20.147273    
     34700   323.47775      0.0694         9.5403855     -0.15735446     773.24495      1050.7666     -95403.855      20.180405      17.463289      20.151042    
     34800   314.59265      0.0696         9.7176766     -0.11879522    -162.14482      1.930431      -97176.766      20.154018      17.487044      20.15481     
     34900   297.43482      0.0698         9.5197363     -0.068878833   -190.62547      1020.7506     -95197.363      20.183936      17.456024      20.158579    
     35000   318.49673      0.07           9.5299286      0.064407653   -55.445878     -60.406074     -95299.286      20.20199       17.449636      20.162348    
     35100   303.13982      0.0702         9.4663668      0.056671051    466.21459     -992.04698     -94663.668      20.163053      17.486779      20.166116    
     35200   288.27826      0.0704         9.6672318      0.013388738    87.905836     -417.66678     -96672.318      20.156219      17.477705      20.169885    
     35300   307.27613      0.0706         9.6278495     -0.085318034   -533.54661     -36.430696     -96278.495      20.209187      17.439997      20.173654    
     35400   305.24862      0.0708         9.5634243     -0.024676719    419.0915      -1514.5826     -95634.243      20.163389      17.479414      20.177422    
     35500   291.82153      0.071          9.7655495     -0.046402532   -667.84146      937.93615     -97655.495      20.172778      17.4574        20.181191    
     35600   312.6988       0.0712         9.6764209     -0.060889987    2174.834      -1513.8268     -96764.209      20.131071      17.498636      20.18496     
     35700   306.14294      0.0714         9.7258711     -0.029322919   -2486.7009      3278.4101     -97258.711      20.254989      17.387147      20.188728    
     35800   301.21616      0.0716         9.8198906     -0.062649552    2806.8658     -2963.9652     -98198.906      20.10557       17.520917      20.192497    
     35900   275.55612      0.0718         9.7809669     -0.046688959   -2194.1591      3145.1094     -97809.669      20.199891      17.428408      20.196266    
     36000   296.35341      0.072          9.8000995     -0.02988343     1859.305      -2400.3342     -98000.995      20.141527      17.481178      20.200034    
     36100   294.01402      0.0722         10.021821     -0.081230574   -1168.1781      2827.6324     -100218.21      20.214149      17.424915      20.203803    
     36200   288.33724      0.0724         9.9142904     -0.10064215     1366.9972     -333.40134     -99142.904      20.126959      17.48504       20.207572    
     36300   287.14517      0.0726         10.017189     -0.058866138   -93.941681      927.01134     -100171.89      20.166795      17.449449      20.21134     
     36400   292.60342      0.0728         9.9045317     -0.029273796   -869.04832      1124.6384     -99045.317      20.196439      17.440365      20.215109    
     36500   306.00806      0.073          10.039159      0.0075528675   1778.567      -3483.4463     -100391.59      20.120989      17.519339      20.218878    
     36600   287.66206      0.0732         10.116352     -0.079451275   -3769.017       2423.4758     -101163.52      20.214925      17.421367      20.222646    
     36700   309.33874      0.0734         9.8981885     -0.012186369    2481.4916     -2975.0447     -98981.885      20.127309      17.497379      20.226415    
     36800   312.66439      0.0736         10.020345      0.036448507   -2807.6084      3202.8806     -100203.45      20.226821      17.404977      20.230184    
     36900   305.57913      0.0738         9.986869       0.0085757341   3650.1768     -2995.084      -99868.69       20.077629      17.522296      20.233952    
     37000   295.24757      0.074          9.8935128      0.042862634   -494.50056      1364.8725     -98935.128      20.166362      17.438796      20.237721    
     37100   292.71408      0.0742         9.8731821      0.051072053   -721.29764      2487.2771     -98731.821      20.18487       17.421784      20.24149     
     37200   313.25614      0.0744         9.8508416      0.062938276    2562.9814     -1151.2322     -98508.416      20.117539      17.48351       20.245258    
     37300   285.19727      0.0746         9.9212377      0.019088997   -970.89281      2608.1339     -99212.377      20.177154      17.430831      20.249027    
     37400   304.86968      0.0748         10.043543     -0.065927       2112.0294     -1770.1959     -100435.43      20.119683      17.485232      20.252796    
     37500   304.7267       0.075          9.9124792     -0.057754484   -1834.6904      2717.3779     -99124.792      20.212306      17.407032      20.256564    
     37600   299.51494      0.0752         10.224635     -0.078009825    2098.7013     -1052.8889     -102246.35      20.097524      17.491937      20.260333    
     37700   294.12753      0.0754         9.9189782     -0.067631993   -487.8315       1484.7373     -99189.782      20.171202      17.430194      20.264102    
     37800   293.76774      0.0756         9.7728018      0.12859757    -1879.4424      1158.1177     -97728.018      20.194472      17.423848      20.26787     
     37900   287.95644      0.0758         10.106048      0.047563724    429.62315     -3534.5081     -101060.48      20.123185      17.487711      20.271639    
     38000   297.55486      0.076          10.131983     -0.088126022   -3804.496      -539.97569     -101319.83      20.191909      17.444159      20.275408    
     38100   295.5995       0.0762         9.990257      -0.07710636    -71.685394     -3375.3642     -99902.57       20.140195      17.481364      20.279176    
     38200   299.07957      0.0764         10.103316     -0.025905563   -2897.2363      433.03517     -101033.16      20.207423      17.403954      20.282945    
     38300   307.34441      0.0766         10.247366     -0.059547254    696.67152      277.87365     -102473.66      20.120951      17.463021      20.286714    
     38400   297.94807      0.0768         9.8820146      0.0062969671   3949.1566      1271.0494     -98820.146      20.09794       17.461761      20.290482    
     38500   294.45778      0.077          9.7913651      0.16617395     2148.0193      4861.0737     -97913.651      20.175577      17.377699      20.294251    
     38600   300.30627      0.0772         10.074391      0.086812651    4889.0297      1274.2361     -100743.91      20.0936        17.450653      20.29802     
     38700   306.65798      0.0774         10.109302     -0.070958597    1110.2118      2135.4476     -101093.02      20.132753      17.439732      20.301788    
     38800   278.06259      0.0776         10.086487     -0.10918253     1048.5745     -1511.0993     -100864.87      20.135894      17.455571      20.305557    
     38900   311.91283      0.0778         10.349189     -0.13569116    -2471.8334     -1366.6933     -103491.89      20.180899      17.428147      20.309326    
     39000   295.57416      0.078          10.169288     -0.10150698    -1204.2141     -1761.0595     -101692.88      20.139783      17.472667      20.313094    
     39100   293.8998       0.0782         10.34651      -0.04574392    -1741.9336     -2196.76       -103465.1       20.148595      17.467136      20.316863    
     39200   289.58763      0.0784         10.363643     -0.092053478   -2879.476       420.81667     -103636.43      20.177203      17.41837       20.320632    
     39300   303.04662      0.0786         10.410179     -0.059149364    1437.1976     -483.32483     -104101.79      20.126781      17.455939      20.3244      
     39400   287.44993      0.0788         10.196846     -0.0062191814   778.64967      1106.7638     -101968.46      20.132025      17.438858      20.328169    
     39500   284.65877      0.079          10.193976      0.10681993     2018.9288      1582.6065     -101939.76      20.117754      17.437407      20.331938    
     39600   299.8068       0.0792         10.194339      0.077639083    2826.5613      1971.3883     -101943.39      20.14644       17.409284      20.335706    
     39700   308.47399      0.0794         10.227832      0.033548856    2665.644       1930.3979     -102278.32      20.119694      17.429501      20.339475    
     39800   292.09787      0.0796         10.184105     -0.0065490999   2269.0018      2423.7767     -101841.05      20.099004      17.439709      20.343244    
     39900   312.72105      0.0798         10.231805     -0.0015434867   348.80083      1659.1859     -102318.05      20.141591      17.419643      20.347012    
     40000   291.06669      0.08           10.356036     -0.055096931    462.71341      569.34629     -103560.36      20.157798      17.417819      20.350781    
     40100   281.34304      0.0802         10.514101     -0.13229246    -1412.1202     -1728.387      -105141.01      20.138393      17.442169      20.35455     
     40200   293.58368      0.0804         10.570624     -0.17102838    -2204.1684     -2480.4044     -105706.24      20.141594      17.453503      20.358318    
     40300   300.67743      0.0806         10.362577     -0.059572283   -1988.24       -1614.4088     -103625.77      20.151776      17.44975       20.362087    
     40400   289.62918      0.0808         10.386459      0.063441231   -1963.8408      162.20577     -103864.59      20.167312      17.418753      20.365856    
     40500   287.58033      0.081          10.617466     -0.011717048    1889.5079     -1713.9928     -106174.66      20.105734      17.456018      20.369624    
     40600   299.67737      0.0812         10.373311     -0.033300958    1280.3305      1318.0558     -103733.11      20.139432      17.419134      20.373393    
     40700   306.21392      0.0814         10.447782      0.02697267     1850.1569      2057.8637     -104477.82      20.141779      17.398925      20.377162    
     40800   288.79515      0.0816         10.70219      -0.06954446     3509.3769      1509.9145     -107021.9       20.091963      17.438309      20.38093     
     40900   304.72524      0.0818         10.478132     -0.066384952    598.53331      4315.9982     -104781.32      20.149584      17.388322      20.384699    
     41000   304.6539       0.082          10.490116      0.014182084    5806.5636     -2545.5285     -104901.16      20.05454       17.48175       20.388468    
     41100   284.8698       0.0822         10.489686      0.031680359   -3916.7587      4953.0128     -104896.86      20.23161       17.335483      20.392236    
     41200   285.84589      0.0824         10.761677     -0.041321133    2274.2862     -4148.9267     -107616.77      20.076472      17.489635      20.396005    
     41300   290.99904      0.0826         10.638632     -0.12850596    -2121.6282     -1738.2106     -106386.32      20.144835      17.450491      20.399774    
     41400   294.53929      0.0828         10.536406     -0.0042157753  -2448.2314     -1522.2798     -105364.06      20.174018      17.421729      20.403542    
     41500   295.31459      0.083          10.678901      0.013407023   -290.68689     -1881.1169     -106789.01      20.1262        17.442162      20.407311    
     41600   280.17232      0.0832         10.581452      0.0092374092  -1108.4595      1376.8877     -105814.52      20.138619      17.411391      20.41108     
     41700   304.59911      0.0834         10.644963      0.0028632692   1928.9768     -518.32351     -106449.63      20.088067      17.45036       20.414848    
     41800   316.47283      0.0836         10.720703     -0.050348166   -619.03169      1960.5385     -107207.03      20.149585      17.406375      20.418617    
     41900   296.32344      0.0838         10.573189     -0.0071045263   1029.4118      672.13041     -105731.89      20.121256      17.420252      20.422386    
     42000   290.87209      0.084          10.649233      0.022696873    1237.824       726.05122     -106492.33      20.102151      17.429325      20.426154    
     42100   310.47134      0.0842         10.730723     -0.0262158      388.52514      804.87396     -107307.23      20.121834      17.42449       20.429923    
     42200   300.79649      0.0844         10.506303      0.017517257    481.16075      673.15137     -105063.03      20.120894      17.416897      20.433692    
     42300   306.87053      0.0846         10.731652      0.019242677   -1554.0718      219.74482     -107316.52      20.139729      17.415136      20.43746     
     42400   300.48196      0.0848         10.540699     -0.0044533818   1483.3878     -2661.1607     -105406.99      20.0769        17.478648      20.441229    
     42500   285.01532      0.085          10.752686      0.0057200556  -3939.98        24.913144     -107526.86      20.168818      17.402907      20.444998    
     42600   303.31011      0.0852         10.965075     -0.1595974     -2101.1016     -4703.5847     -109650.75      20.132279      17.456387      20.448766    
     42700   320.13224      0.0854         10.635108     -0.075047478   -4438.7579     -1521.4963     -106351.08      20.156111      17.428831      20.452535    
     42800   297.58087      0.0856         10.674586      0.058783545   -580.09515     -2113.6544     -106745.86      20.09046       17.459168      20.456304    
     42900   311.44883      0.0858         10.83293       0.018318971   -408.89662      347.38761     -108329.3       20.13744       17.400087      20.460072    
     43000   307.60388      0.086          10.534709      0.044662295    1141.7567      1249.2492     -105347.09      20.10471       17.415851      20.463841    
     43100   315.25507      0.0862         10.569775      0.097179795    3200.7394      1874.4799     -105697.75      20.093348      17.421619      20.46761     
     43200   304.85093      0.0864         10.715297      0.022923439    2331.4824      5093.042      -107152.97      20.10634       17.383039      20.471378    
     43300   298.49704      0.0866         10.627258     -0.015283994    5429.9796      3807.7046     -106272.58      20.062388      17.403253      20.475147    
[...]
     43800   302.35062      0.0876         10.958086     -0.11371276    -7500.7983     -7410.4842     -109580.86      20.18026       17.45674       20.49399     
     43900   286.71851      0.0878         11.095435     -0.13400897    -5626.5682     -5712.4306     -110954.35      20.147123      17.460452      20.497759    
     44000   301.8504       0.088          10.868134     -0.058369919   -1400.5388     -3760.0186     -108681.34      20.113548      17.449903      20.501527    
     44100   330.93479      0.0882         10.789759      0.07824892    -600.43445      198.5255      -107897.59      20.126378      17.415988      20.505296    
     44200   302.80739      0.0884         10.894077      0.079179868    3507.1989      2408.1895     -108940.77      20.083867      17.399134      20.509065    
     44300   300.39773      0.0886         10.719732      0.066522709    4447.0459      4418.8777     -107197.32      20.063114      17.393751      20.512833    
     44400   310.74945      0.0888         10.748817      0.069829255    3985.9105      3537.9633     -107488.17      20.096096      17.383248      20.516602    
     44500   291.22655      0.089          10.897142     -0.013074032    3292.4522      1245.6696     -108971.42      20.063272      17.414049      20.520371    
     44600   309.63624      0.0892         10.9454       -0.080237387   -557.94843      1150.1697     -109454         20.122646      17.396659      20.524139    
     44700   303.11591      0.0894         11.082671     -0.13528299     679.6099      -2336.891      -110826.71      20.084986      17.450448      20.527908    
     44800   286.44105      0.0896         11.123772     -0.14366086    -3406.3788      580.1339      -111237.72      20.148703      17.380892      20.531677    
     44900   299.99851      0.0898         11.003204     -0.053049881    1024.8662     -3670.3653     -110032.04      20.061508      17.456371      20.535445    
     45000   298.80191      0.09           10.801612      0.088923853   -2933.8982      3231.8223     -108016.12      20.157183      17.360711      20.539214    
     45100   309.44264      0.0902         10.835393      0.1508277      2546.6353     -232.8584      -108353.93      20.072708      17.413665      20.542983    
     45200   303.65693      0.0904         10.834873      0.084637609    1943.567       1623.6329     -108348.73      20.080898      17.390033      20.546751    
     45300   291.67803      0.0906         10.799335      0.037779489   -161.73673      3961.3385     -107993.35      20.088526      17.401739      20.55052     
     45400   286.97376      0.0908         11.111742     -0.078947392    2604.322      -1180.8175     -111117.42      20.042752      17.446573      20.554289    
     45500   286.02758      0.091          11.14515      -0.18314722    -3657.5471      3155.7609     -111451.5       20.177371      17.337929      20.558057    
     45600   288.59063      0.0912         11.072039     -0.11596693     2093.2114     -3372.5442     -110720.39      20.052409      17.459988      20.561826    
     45700   295.68246      0.0914         11.021368     -0.016776936   -2352.3527     -115.2212      -110213.68      20.119004      17.403289      20.565595    
     45800   270.66864      0.0916         11.121654      0.022879539   -723.44202     -1543.0017     -111216.54      20.101347      17.409583      20.569363    
     45900   299.3482       0.0918         10.794125      0.072977765   -996.96941     -2866.0134     -107941.25      20.092772      17.422667      20.573132    
     46000   293.80196      0.092          10.819422      0.1589482     -3116.7112      1931.4124     -108194.22      20.139425      17.36566       20.576901    
     46100   285.16522      0.0922         10.964384      0.052287482    2510.2432     -2528.4127     -109643.84      20.02642       17.453066      20.580669    
     46200   289.81477      0.0924         11.069889     -0.063241869   -2254.0246      3611.082      -110698.89      20.150914      17.341644      20.584438    
     46300   290.78131      0.0926         10.887731     -0.071699817    4854.5135     -2190.3543     -108877.31      20.041669      17.439264      20.588207    
     46400   291.4621       0.0928         11.164215     -0.044844425   -1889.7076      4127.8483     -111642.15      20.126395      17.354369      20.591975    
     46500   284.43797      0.093          11.233578     -0.13493692     1025.7753     -119.10703     -112335.78      20.059372      17.419718      20.595744    
     46600   299.94925      0.0932         11.110121     -0.078742793    1917.1939     -1110.7317     -111101.21      20.061698      17.422979      20.599513    
     46700   309.80706      0.0934         11.178037     -0.029342615   -3496.7172      2888.0162     -111780.37      20.175386      17.334651      20.603281    
     46800   297.71631      0.0936         11.197963     -0.01121702     3725.4664     -4622.9284     -111979.63      19.996667      17.469717      20.60705     
     46900   301.7096       0.0938         11.030195      0.035899808   -4921.8992      2121.6773     -110301.95      20.166593      17.35116       20.610819    
     47000   301.81958      0.094          11.004872      0.086703985    2405.197      -4597.931      -110048.72      20.023423      17.465821      20.614587    
     47100   287.63574      0.0942         11.19002       0.022771247   -3992.3281      2864.6543     -111900.2       20.155135      17.336628      20.618356    
     47200   305.15119      0.0944         11.199248     -0.070174505    2001.4566     -3471.8244     -111992.48      20.035053      17.457777      20.622125    
     47300   296.29041      0.0946         11.06077      -0.032987911   -1570.107       2096.1675     -110607.7       20.127535      17.355701      20.625893    
     47400   300.11626      0.0948         11.299928     -0.029381572    1013.2511     -282.90384     -112999.28      20.07113       17.397167      20.629662    
     47500   306.56037      0.095          11.22349      -0.067017896    1723.5284     -889.31803     -112234.9       20.073518      17.394475      20.633431    
     47600   302.08868      0.0952         11.219358     -0.020865184   -687.9388       2206.2583     -112193.58      20.095506      17.382848      20.637199    
     47700   309.56766      0.0954         11.426055     -0.076786094    2473.8955     -1266.521      -114260.55      20.048937      17.40959       20.640968    
     47800   312.00375      0.0956         11.421148     -0.10560547    -1925.6839      1983.7616     -114211.48      20.146852      17.33754       20.644737    
     47900   281.38251      0.0958         11.083342      0.02243354     2682.2826     -458.84056     -110833.42      20.043911      17.409908      20.648505    
     48000   298.07257      0.096          11.222991      0.12141221     332.32696     -1116.9607     -112229.91      20.071066      17.418682      20.652274    
     48100   298.87078      0.0962         11.234292      0.04892388     318.13875     -333.45947     -112342.92      20.076174      17.398284      20.656043    
     48200   300.4224       0.0964         11.362933     -0.033671476   -1130.6453     -72.663036     -113629.33      20.123934      17.358762      20.659811    
     48300   305.7802       0.0966         11.38069      -0.11496194    -1393.0964     -1977.0321     -113806.9       20.086282      17.403974      20.66358     
     48400   313.78534      0.0968         11.304915     -0.041638208   -2280.7752     -1323.7439     -113049.15      20.077194      17.405778      20.667349    
     48500   295.77422      0.097          11.50895      -0.048576419   -1099.5715      266.48957     -115089.5       20.091135      17.381264      20.671117    
     48600   293.27474      0.0972         11.51941      -0.098800244    289.22152     -549.46403     -115194.1       20.083844      17.375595      20.674886    
     48700   294.06187      0.0974         11.091523      0.055631081   -399.55621      761.03036     -110915.23      20.068455      17.378121      20.678655    
     48800   304.79471      0.0976         11.094452      0.21086257    -180.12146     -769.46481     -110944.52      20.061927      17.397697      20.682423    
     48900   294.35897      0.0978         11.605857      0.013883883   -2162.2461      1777.7437     -116058.57      20.112728      17.353778      20.686192    
     49000   295.9241       0.098          11.392183     -0.15833498     1533.7758     -1927.5631     -113921.83      20.050939      17.406497      20.689961    
     49100   293.35576      0.0982         11.26093      -0.037567352    146.03139      363.31705     -112609.3       20.069054      17.38378       20.693729    
     49200   300.34834      0.0984         11.251826      0.064671675   -1293.6956     -1143.9029     -112518.26      20.119902      17.357531      20.697498    
     49300   295.4016       0.0986         11.275149      0.09370165    -1668.273      -1457.539      -112751.49      20.113188      17.349725      20.701267    
     49400   300.34087      0.0988         11.261279      0.020059511   -3856.5202      824.00332     -112612.79      20.131218      17.351248      20.705035    
     49500   303.27729      0.099          11.498396     -0.070321423    2061.8885     -3729.3374     -114983.96      20.021511      17.441795      20.708804    
     49600   292.0185       0.0992         11.371602     -0.10334883    -2096.952       3300.1324     -113716.02      20.108801      17.325514      20.712573    
     49700   298.76769      0.0994         11.311425      0.0020564747   3322.578      -267.39188     -113114.25      20.03479       17.393021      20.716341    
     49800   295.55481      0.0996         11.2991        0.043097985    166.93878      3238.6926     -112991         20.096651      17.333198      20.72011     
     49900   286.32901      0.0998         11.21939       0.080737657    2742.4509      428.25971     -112193.9       20.01989       17.397031      20.723879    
     50000   303.5259       0.1            11.310581      0.037433934   -665.91946      605.45687     -113105.81      20.092826      17.36272       20.727647    
     50100   306.40911      0.1002         11.64663      -0.1211804     -1896.7505     -1719.0702     -116466.3       20.081719      17.388888      20.731416    
     50200   296.25799      0.1004         11.827426     -0.27640245    -2608.4814     -2588.8321     -118274.26      20.089683      17.400939      20.735185    
     50300   306.31233      0.1006         11.567623     -0.18319446    -1432.3503     -3516.1887     -115676.23      20.049022      17.431716      20.738953    
     50400   314.21296      0.1008         11.564491      0.017293033   -2793.1207      1438.5415     -115644.91      20.118387      17.350342      20.742722    
     50500   306.12792      0.101          11.530347      0.079884173    3017.758      -1040.2271     -115303.47      20.038774      17.387136      20.746491    
     50600   314.30775      0.1012         11.481479      0.088360179    1508.7466      3277.2211     -114814.79      20.073932      17.352299      20.750259    
     50700   293.41128      0.1014         11.452376      0.052335876    4633.0002      3805.1762     -114523.76      19.994626      17.381797      20.754028    
     50800   299.20312      0.1016         11.554393      0.013232771    3320.2702      3746.6996     -115543.93      20.034509      17.353179      20.757797    
     50900   301.07947      0.1018         11.033716      0.1164077      1445.4547      1671.3212     -110337.16      20.052281      17.358907      20.761565    
     51000   305.75059      0.102          11.587736      0.11121399    -1991.3676     -1775.8385     -115877.36      20.066099      17.390481      20.765334    
     51100   297.00554      0.1022         11.742099     -0.1908536     -3882.0509     -6162.4457     -117420.99      20.061437      17.454068      20.769103    
     51200   295.01262      0.1024         11.815165     -0.23201019    -7520.874      -4571.3797     -118151.65      20.144642      17.385689      20.772871    
     51300   287.24422      0.1026         11.811986     -0.21543488    -3811.5698     -6094.0477     -118119.86      20.083251      17.423913      20.77664     
     51400   315.78231      0.1028         11.887282     -0.080780382   -5333.5533     -913.07101     -118872.82      20.118881      17.372824      20.780409    
     51500   292.05318      0.103          11.711892     -0.0059022896   2267.4557     -965.94013     -117118.92      20.018342      17.398317      20.784177    
     51600   290.631        0.1032         11.660342      0.091216353    3569.3831      4544.5711     -116603.42      20.046212      17.330263      20.787946    
     51700   303.76517      0.1034         11.524737      0.1267084      4090.0646      7058.3695     -115247.37      20.03137       17.328538      20.791715    
     51800   286.47626      0.1036         11.34685       0.19042709     9079.5878      4402.5164     -113468.5       19.9598        17.355264      20.795483    
     51900   314.32814      0.1038         11.380602      0.16115833     2198.0901      4707.3122     -113806.02      20.064857      17.321423      20.799252    
     52000   297.33767      0.104          11.535745      0.031481706    672.78744     -1509.1503     -115357.45      20.065258      17.370204      20.803021    
     52100   286.20339      0.1042         11.973806     -0.20242735    -5296.859      -4533.0166     -119738.06      20.094961      17.40808       20.806789    
     52200   300.81254      0.1044         11.793508     -0.27755471    -7271.8794     -6858.6027     -117935.08      20.097866      17.428236      20.810558    
     52300   292.18818      0.1046         11.65505      -0.056536777   -4657.089      -7716.4525     -116550.5       20.090765      17.422668      20.814327    
     52400   291.03977      0.1048         11.824324      0.016799358   -4803.6078     -3186.5759     -118243.24      20.110762      17.374334      20.818095    
     52500   274.72607      0.105          11.835156     -0.013371058   -96.559785     -680.00426     -118351.56      20.037348      17.381965      20.821864    
     52600   295.14024      0.1052         11.537058      0.04291234     2080.5276      1573.3516     -115370.58      20.029955      17.362783      20.825633    
     52700   305.88912      0.1054         11.431591      0.17231146     3685.5953      4737.0744     -114315.91      20.019347      17.338491      20.829401    
     52800   300.77723      0.1056         11.546013      0.14602629     6196.1507      4233.9104     -115460.13      19.994271      17.336851      20.83317     
     52900   311.41197      0.1058         11.60206       0.016338942    2413.1499      4515.3541     -116020.6       20.040804      17.326246      20.836938    
     53000   311.4033       0.106          11.430487     -0.0068318518  -132.91569     -633.84954     -114304.87      20.018879      17.390435      20.840707    
     53100   296.34621      0.1062         11.845494     -0.066861742   -4536.9069     -3198.751      -118454.94      20.088599      17.381139      20.844476    
     53200   315.13472      0.1064         11.885544     -0.20359933    -5097.7942     -8070.9118     -118855.44      20.090587      17.412151      20.848244    
     53300   323.88839      0.1066         11.520711     -0.04626796    -8412.7154     -3892.0484     -115207.11      20.157251      17.345644      20.852013    
     53400   312.30926      0.1068         11.395311      0.15749858    -525.45808     -4277.2631     -113953.11      20.042195      17.385096      20.855782    
     53500   300.41319      0.107          11.468052      0.19134071     1540.583       2367.7639     -114680.52      20.035842      17.327221      20.85955     
     53600   297.81186      0.1072         11.240525      0.14773985     4315.104       5773.8012     -112405.25      20.048644      17.284855      20.863319    
     53700   323.04028      0.1074         10.750131      0.27961797     5481.9863      3516.5602     -107501.31      20.056382      17.246065      20.867088    
     53800   318.18888      0.1076         9.510656       0.74254162     2462.1871      1486.7201     -95106.56       20.068052      17.125325      20.870856    
Fix halt condition for fix-id halt_drop_fix met on step 53900 with value 1
     53900   310.88314      0.1078         7.4345244      1.6081876      925.42226     -1185.0038     -74345.244      20.091642      16.945763      20.874625    
Loop time of 155.805 on 1 procs for 53900 steps with 576 atoms

Performance: 59.779 ns/day, 0.401 hours/ns, 345.945 timesteps/s, 199.265 katom-step/s
108.9% CPU use with 1 MPI tasks x 1 OpenMP threads

MPI task timing breakdown:
Section |  min time  |  avg time  |  max time  |%varavg| %total
---------------------------------------------------------------
Pair    | 152.34     | 152.34     | 152.34     |   0.0 | 97.77
Neigh   | 0.62426    | 0.62426    | 0.62426    |   0.0 |  0.40
Comm    | 0.6093     | 0.6093     | 0.6093     |   0.0 |  0.39
Output  | 1.0118     | 1.0118     | 1.0118     |   0.0 |  0.65
Modify  | 1.0988     | 1.0988     | 1.0988     |   0.0 |  0.71
Other   |            | 0.1226     |            |       |  0.08

Nlocal:            576 ave         576 max         576 min
Histogram: 1 0 0 0 0 0 0 0 0 0
Nghost:           4960 ave        4960 max        4960 min
Histogram: 1 0 0 0 0 0 0 0 0 0
Neighs:         130192 ave      130192 max      130192 min
Histogram: 1 0 0 0 0 0 0 0 0 0
FullNghs:       255170 ave      255170 max      255170 min
Histogram: 1 0 0 0 0 0 0 0 0 0

Total # of neighbors = 255170
Ave neighs/atom = 443.00347
Neighbor list builds = 142
Dangerous builds = 0
Total wall time: 0:02:42
1.468052      0.19134071     1540.583       2367.7639     -114680.52      20.035842      17.327221      20.85955     
     53600   297.81186      0.1072         11.240525      0.14773985     4315.104       5773.8012     -112405.25      20.048644      17.284855      20.863319    
     53700   323.04028      0.1074         10.750131      0.27961797     5481.9863      3516.5602     -107501.31      20.056382      17.246065      20.867088    
     53800   318.18888      0.1076         9.510656       0.74254162     2462.1871      1486.7201     -95106.56       20.068052      17.125325      20.870856    
Fix halt condition for fix-id halt_drop_fix met on step 53900 with value 1
     53900   310.88314      0.1078         7.4345244      1.6081876      925.42226     -1185.0038     -74345.244      20.091642      16.945763      20.874625    
Loop time of 155.805 on 1 procs for 53900 steps with 576 atoms

Performance: 59.779 ns/day, 0.401 hours/ns, 345.945 timesteps/s, 199.265 katom-step/s
108.9% CPU use with 1 MPI tasks x 1 OpenMP threads

MPI task timing breakdown:
Section |  min time  |  avg time  |  max time  |%varavg| %total
---------------------------------------------------------------
Pair    | 152.34     | 152.34     | 152.34     |   0.0 | 97.77
Neigh   | 0.62426    | 0.62426    | 0.62426    |   0.0 |  0.40
Comm    | 0.6093     | 0.6093     | 0.6093     |   0.0 |  0.39
Output  | 1.0118     | 1.0118     | 1.0118     |   0.0 |  0.65
Modify  | 1.0988     | 1.0988     | 1.0988     |   0.0 |  0.71
Other   |            | 0.1226     |            |       |  0.08

Nlocal:            576 ave         576 max         576 min
Histogram: 1 0 0 0 0 0 0 0 0 0
Nghost:           4960 ave        4960 max        4960 min
Histogram: 1 0 0 0 0 0 0 0 0 0
Neighs:         130192 ave      130192 max      130192 min
Histogram: 1 0 0 0 0 0 0 0 0 0
FullNghs:       255170 ave      255170 max      255170 min
Histogram: 1 0 0 0 0 0 0 0 0 0

Total # of neighbors = 255170
Ave neighs/atom = 443.00347
Neighbor list builds = 142
Dangerous builds = 0
Total wall time: 0:02:42
