(written by ASE)

576 atoms
1 atom types

0.0      23.136533880423833  xlo xhi
0.0      20.036826095966397  ylo yhi
0.0      21.252263408870125  zlo zhi

Atoms # atomic

     1   1      2.8920667350529796 -3.7050484247639089e-17 -5.4455976141580768e-17
     2   1      1.4460333675264898      2.5046032619957996 -5.4455976141580768e-17
     3   1  7.4112753707321671e-17      5.0092065239915993 -1.0891195228316154e-16
     4   1                       0                       0                       0
     5   1  7.4112753707321671e-17      1.6697355079971996       2.361362600985569
     6   1      4.3381001025794692      2.5046032619957996 -5.4455976141580768e-17
     7   1      1.4460333675264898      7.5138097859873989  5.8676676500289005e-17
     8   1      4.3381001025794692      7.5138097859873989  5.8676676500289005e-17
     9   1      2.8920667350529796      5.0092065239915993 -1.0891195228316154e-16
    10   1      1.4460333675264898      4.1743387699929997       2.361362600985569
    11   1      4.3381001025794692      4.1743387699929997       2.361362600985569
    12   1      2.8920667350529796      6.6789420319887993       2.361362600985569
    13   1      2.8920667350529796      1.6697355079971996       2.361362600985569
    14   1      1.4460333675264898     0.83486775399859992      4.7227252019711381
    15   1      4.3381001025794692     0.83486775399859992      4.7227252019711381
    16   1      2.8920667350529796      3.3394710159943997      4.7227252019711381
    17   1      1.4460333675264898       9.183545293984599      2.3613626009855695
    18   1  1.4822550741464334e-16      6.6789420319887984       2.361362600985569
    19   1      1.4460333675264898      5.8440742779901997       4.722725201971139
    20   1  2.9365619693370478e-19      8.3486775399859994      4.7227252019711381
    21   1  1.4822550741464334e-16      3.3394710159943992      4.7227252019711381
    22   1      4.3381001025794692      9.1835452939845972      2.3613626009855686
    23   1      4.3381001025794692      5.8440742779901989      4.7227252019711381
    24   1      2.8920667350529796      8.3486775399859994      4.7227252019711381
    25   1      2.8920667350529796  2.9588727285950626e-16      7.0840878029567076
    26   1      1.4460333675264898      2.5046032619958001      7.0840878029567076
    27   1  2.9365619693370478e-19      5.0092065239915993      7.0840878029567076
    28   1  1.4822550741464334e-16 -1.4820193699055636e-16      7.0840878029567076
    29   1  2.9365619693370478e-19      1.6697355079971998      9.4454504039422762
    30   1      4.3381001025794692      2.5046032619957992      7.0840878029567067
    31   1        1.44603336752649      7.5138097859873989      7.0840878029567076
    32   1      4.3381001025794692      7.5138097859873989      7.0840878029567076
    33   1      2.8920667350529796      5.0092065239915993      7.0840878029567076
    34   1        1.44603336752649      4.1743387699929988      9.4454504039422762
    35   1      4.3381001025794692      4.1743387699929988      9.4454504039422762
    36   1      2.8920667350529792      6.6789420319887984      9.4454504039422762
    37   1      2.8920667350529796      1.6697355079971998      9.4454504039422762
    38   1        1.44603336752649      0.8348677539985998      11.806813004927845
    39   1      4.3381001025794692      0.8348677539985998      11.806813004927845
    40   1      2.8920667350529792      3.3394710159943992      11.806813004927845
    41   1      1.4460333675264894      9.1835452939845972       9.445450403942278
    42   1  2.9645101482928668e-16      6.6789420319887984      9.4454504039422762
    43   1      1.4460333675264894       5.844074277990198      11.806813004927847
    44   1 -2.9557004623848557e-16      8.3486775399859976      11.806813004927847
    45   1  2.9645101482928668e-16      3.3394710159943992      11.806813004927845
    46   1      4.3381001025794692       9.183545293984599      9.4454504039422762
    47   1      4.3381001025794692      5.8440742779901989      11.806813004927845
    48   1      2.8920667350529796      8.3486775399859994      11.806813004927847
    49   1      2.8920667350529792 -2.9640387398111271e-16      14.168175605913415
    50   1      1.4460333675264894      2.5046032619957987      14.168175605913415
    51   1 -2.9557004623848557e-16      5.0092065239915984      14.168175605913415
    52   1  2.9645101482928668e-16 -2.9640387398111271e-16      14.168175605913415
    53   1 -2.9557004623848557e-16      1.6697355079971989      16.529538206898984
    54   1      4.3381001025794692      2.5046032619957996      14.168175605913413
    55   1      1.4460333675264898      7.5138097859873989      14.168175605913415
    56   1      4.3381001025794683      7.5138097859873989      14.168175605913415
    57   1      2.8920667350529796      5.0092065239916002      14.168175605913415
    58   1      1.4460333675264898      4.1743387699929997      16.529538206898984
    59   1      4.3381001025794683      4.1743387699929997      16.529538206898984
    60   1      2.8920667350529787      6.6789420319887993      16.529538206898984
    61   1      2.8920667350529796      1.6697355079972007      16.529538206898984
    62   1      1.4460333675264898     0.83486775399860058      18.890900807884552
    63   1      4.3381001025794683     0.83486775399860058      18.890900807884552
    64   1      2.8920667350529787      3.3394710159943997      18.890900807884552
    65   1      1.4460333675264891       9.183545293984599      16.529538206898984
    66   1  5.8731239386740956e-19      6.6789420319887993      16.529538206898984
    67   1      1.4460333675264891      5.8440742779901989      18.890900807884552
    68   1 -5.9143374867390484e-16      8.3486775399859976      18.890900807884552
    69   1  5.8731239386740956e-19      3.3394710159943997      18.890900807884552
    70   1      4.3381001025794701       9.183545293984599      16.529538206898984
    71   1      4.3381001025794701      5.8440742779901989      18.890900807884552
    72   1      2.8920667350529801      8.3486775399859976      18.890900807884552
    73   1      2.8920667350529796      10.018413047983199 -2.1782390456632307e-16
    74   1      1.4460333675264898      12.523016309978997  3.9385393406719009e-16
    75   1  2.9365619693370478e-19      15.027619571974798  1.1735335300057801e-16
    76   1  1.4822550741464334e-16      10.018413047983199 -2.1782390456632307e-16
    77   1  2.9365619693370478e-19      11.688148555980398      2.3613626009855695
    78   1      4.3381001025794692      12.523016309978997 -4.9432448563293515e-16
    79   1        1.44603336752649      17.532222833970597 -1.5914722806603407e-16
    80   1      4.3381001025794692      17.532222833970597 -1.5914722806603407e-16
    81   1      2.8920667350529796      15.027619571974798  1.1735335300057801e-16
    82   1        1.44603336752649      14.192751817976196       2.361362600985569
    83   1      4.3381001025794692      14.192751817976196       2.361362600985569
    84   1      2.8920667350529792      16.697355079971995      2.3613626009855686
    85   1      2.8920667350529796      11.688148555980398      2.3613626009855695
    86   1        1.44603336752649      10.853280801981798      4.7227252019711381
    87   1      4.3381001025794692      10.853280801981798      4.7227252019711381
    88   1      2.8920667350529792      13.357884063977597      4.7227252019711381
    89   1      1.4460333675264894      19.201958341967796      2.3613626009855704
    90   1  2.9645101482928668e-16      16.697355079971995      2.3613626009855686
    91   1      1.4460333675264894      15.862487325973396       4.722725201971139
    92   1 -2.9557004623848557e-16      18.367090587969194       4.722725201971139
    93   1  2.9645101482928668e-16      13.357884063977597      4.7227252019711381
    94   1      4.3381001025794692      19.201958341967796      2.3613626009855686
    95   1      4.3381001025794692      15.862487325973397      4.7227252019711372
    96   1      2.8920667350529796      18.367090587969198       4.722725201971139
    97   1      2.8920667350529792      10.018413047983199      7.0840878029567067
    98   1      1.4460333675264894      12.523016309978997      7.0840878029567085
    99   1 -2.9557004623848557e-16      15.027619571974796      7.0840878029567085
   100   1  2.9645101482928668e-16      10.018413047983199      7.0840878029567067
   101   1 -2.9557004623848557e-16      11.688148555980398       9.445450403942278
   102   1      4.3381001025794692      12.523016309978997      7.0840878029567067
   103   1      1.4460333675264898      17.532222833970597      7.0840878029567076
   104   1      4.3381001025794683      17.532222833970597      7.0840878029567076
   105   1      2.8920667350529796      15.027619571974798      7.0840878029567085
   106   1      1.4460333675264898      14.192751817976198       9.445450403942278
   107   1      4.3381001025794683      14.192751817976198       9.445450403942278
   108   1      2.8920667350529787      16.697355079971999      9.4454504039422762
   109   1      2.8920667350529796      11.688148555980399       9.445450403942278
   110   1      1.4460333675264898      10.853280801981798      11.806813004927847
   111   1      4.3381001025794683      10.853280801981798      11.806813004927847
   112   1      2.8920667350529787      13.357884063977599      11.806813004927847
   113   1      1.4460333675264891      19.201958341967796      9.4454504039422762
   114   1  5.8731239386740956e-19      16.697355079971999      9.4454504039422762
   115   1      1.4460333675264891      15.862487325973397      11.806813004927847
   116   1 -5.9143374867390484e-16      18.367090587969198      11.806813004927845
   117   1  5.8731239386740956e-19      13.357884063977599      11.806813004927847
   118   1      4.3381001025794701      19.201958341967796      9.4454504039422762
   119   1      4.3381001025794701      15.862487325973397      11.806813004927847
   120   1      2.8920667350529801      18.367090587969198      11.806813004927845
   121   1      2.8920667350529787      10.018413047983199      14.168175605913415
   122   1      1.4460333675264891      12.523016309978997      14.168175605913415
   123   1 -5.9143374867390484e-16      15.027619571974798      14.168175605913415
   124   1  5.8731239386740956e-19      10.018413047983199      14.168175605913415
   125   1 -5.9143374867390484e-16      11.688148555980398      16.529538206898984
   126   1      4.3381001025794701      12.523016309978997      14.168175605913415
   127   1      1.4460333675264903      17.532222833970597      14.168175605913417
   128   1       4.338100102579471      17.532222833970597      14.168175605913417
   129   1      2.8920667350529801      15.027619571974798      14.168175605913415
   130   1      1.4460333675264903      14.192751817976196      16.529538206898984
   131   1       4.338100102579471      14.192751817976196      16.529538206898984
   132   1      2.8920667350529814      16.697355079971999      16.529538206898987
   133   1      2.8920667350529801      11.688148555980398      16.529538206898984
   134   1      1.4460333675264903      10.853280801981798      18.890900807884556
   135   1       4.338100102579471      10.853280801981798      18.890900807884556
   136   1      2.8920667350529814      13.357884063977599      18.890900807884556
   137   1      1.4460333675264916      19.201958341967796      16.529538206898984
   138   1  5.9290202965857337e-16      16.697355079971995      16.529538206898984
   139   1      1.4460333675264916      15.862487325973397      18.890900807884552
   140   1  5.2116384104403145e-16      18.367090587969198      18.890900807884556
   141   1  5.9290202965857337e-16      13.357884063977597      18.890900807884552
   142   1      4.3381001025794683      19.201958341967796      16.529538206898984
   143   1      4.3381001025794683      15.862487325973396      18.890900807884552
   144   1      2.8920667350529787      18.367090587969194      18.890900807884556
   145   1      8.6762002051589384  1.1089315218211404e-16  5.8676676500289005e-17
   146   1      7.2301668376324484      2.5046032619957996  1.6758862878345054e-16
   147   1      5.7841334701059592      5.0092065239915993 -1.0891195228316154e-16
   148   1      5.7841334701059592 -7.4100968495278179e-17 -1.0891195228316154e-16
   149   1      5.7841334701059592      1.6697355079971998       2.361362600985569
   150   1      10.122233572685428      2.5046032619957992 -2.7650058106661208e-16
   151   1      7.2301668376324493       7.513809785987398 -3.8541253334977361e-16
   152   1      10.122233572685428       7.513809785987398  5.0276588635035162e-16
   153   1      8.6762002051589384      5.0092065239915993 -1.0891195228316154e-16
   154   1      7.2301668376324493      4.1743387699929988      2.3613626009855686
   155   1      10.122233572685428      4.1743387699929988      2.3613626009855695
   156   1      8.6762002051589384      6.6789420319887984      2.3613626009855699
   157   1      8.6762002051589384      1.6697355079971996       2.361362600985569
   158   1      7.2301668376324493     0.83486775399859947      4.7227252019711381
   159   1      10.122233572685428     0.83486775399859947       4.722725201971139
   160   1      8.6762002051589384      3.3394710159943988       4.722725201971139
   161   1      7.2301668376324484      9.1835452939845972      2.3613626009855695
   162   1      5.7841334701059592      6.6789420319887984       2.361362600985569
   163   1      7.2301668376324484      5.8440742779901989       4.722725201971139
   164   1      5.7841334701059584      8.3486775399859976      4.7227252019711381
   165   1      5.7841334701059592      3.3394710159943992      4.7227252019711381
   166   1      10.122233572685428       9.183545293984599      2.3613626009855695
   167   1      10.122233572685428      5.8440742779901997       4.722725201971139
   168   1      8.6762002051589384      8.3486775399859994      4.7227252019711381
   169   1      8.6762002051589384 -5.9229114684061897e-16      7.0840878029567085
   170   1      7.2301668376324484      2.5046032619957992      7.0840878029567076
   171   1      5.7841334701059584      5.0092065239915984      7.0840878029567076
   172   1      5.7841334701059592 -1.4820193699055636e-16      7.0840878029567076
   173   1      5.7841334701059584      1.6697355079971989      9.4454504039422762
   174   1      10.122233572685428      2.5046032619958001      7.0840878029567076
   175   1      7.2301668376324484      7.5138097859873989      7.0840878029567076
   176   1      10.122233572685428      7.5138097859873989      7.0840878029567076
   177   1      8.6762002051589384      5.0092065239915993      7.0840878029567076
   178   1      7.2301668376324484      4.1743387699929988      9.4454504039422762
   179   1      10.122233572685428      4.1743387699929988      9.4454504039422762
   180   1      8.6762002051589384      6.6789420319887984      9.4454504039422762
   181   1      8.6762002051589384      1.6697355079971998      9.4454504039422762
   182   1      7.2301668376324484      0.8348677539985998      11.806813004927845
   183   1      10.122233572685428      0.8348677539985998      11.806813004927845
   184   1      8.6762002051589384      3.3394710159943992      11.806813004927845
   185   1      7.2301668376324484       9.183545293984599      9.4454504039422762
   186   1      5.7841334701059592      6.6789420319887993      9.4454504039422762
   187   1      7.2301668376324484      5.8440742779901989      11.806813004927845
   188   1      5.7841334701059584      8.3486775399859976      11.806813004927845
   189   1      5.7841334701059592      3.3394710159944001      11.806813004927845
   190   1      10.122233572685429      9.1835452939845972      9.4454504039422762
   191   1      10.122233572685429       5.844074277990198      11.806813004927845
   192   1      8.6762002051589384      8.3486775399859976      11.806813004927845
   193   1      8.6762002051589384 -2.9640387398111271e-16      14.168175605913415
   194   1      7.2301668376324484      2.5046032619957996      14.168175605913413
   195   1      5.7841334701059584      5.0092065239915984      14.168175605913413
   196   1      5.7841334701059592  5.9177454571901252e-16      14.168175605913415
   197   1      5.7841334701059584      1.6697355079971989      16.529538206898984
   198   1      10.122233572685429      2.5046032619957987      14.168175605913413
   199   1      7.2301668376324493      7.5138097859873971      14.168175605913413
   200   1      10.122233572685429      7.5138097859873989      14.168175605913415
   201   1      8.6762002051589384      5.0092065239915984      14.168175605913413
   202   1      7.2301668376324493      4.1743387699929979      16.529538206898984
   203   1      10.122233572685429      4.1743387699929997      16.529538206898984
   204   1      8.6762002051589402      6.6789420319887993      16.529538206898984
   205   1      8.6762002051589384      1.6697355079971989      16.529538206898984
   206   1      7.2301668376324493      0.8348677539985988      18.890900807884552
   207   1      10.122233572685429     0.83486775399860058      18.890900807884552
   208   1      8.6762002051589402      3.3394710159943997      18.890900807884552
   209   1      7.2301668376324502       9.183545293984599      16.529538206898987
   210   1      5.7841334701059592      6.6789420319887993      16.529538206898984
   211   1      7.2301668376324502      5.8440742779901989      18.890900807884556
   212   1       5.784133470105961      8.3486775399859976      18.890900807884552
   213   1      5.7841334701059592      3.3394710159943997      18.890900807884552
   214   1      10.122233572685428      9.1835452939845972      16.529538206898984
   215   1      10.122233572685428      5.8440742779901971      18.890900807884552
   216   1      8.6762002051589384      8.3486775399859976      18.890900807884552
   217   1      8.6762002051589384      10.018413047983197  6.7035451513380216e-16
   218   1      7.2301668376324484      12.523016309978997  3.9385393406719009e-16
   219   1      5.7841334701059584      15.027619571974796  1.1735335300057801e-16
   220   1      5.7841334701059592      10.018413047983199 -2.1782390456632307e-16
   221   1      5.7841334701059584      11.688148555980398      2.3613626009855695
   222   1      10.122233572685428      12.523016309978997  3.9385393406719009e-16
   223   1      7.2301668376324484      17.532222833970597 -1.5914722806603407e-16
   224   1      10.122233572685428      17.532222833970597 -1.5914722806603407e-16
   225   1      8.6762002051589384      15.027619571974798  1.1735335300057801e-16
   226   1      7.2301668376324484      14.192751817976196       2.361362600985569
   227   1      10.122233572685428      14.192751817976196       2.361362600985569
   228   1      8.6762002051589384      16.697355079971995      2.3613626009855686
   229   1      8.6762002051589384      11.688148555980398      2.3613626009855695
   230   1      7.2301668376324484      10.853280801981798      4.7227252019711381
   231   1      10.122233572685428      10.853280801981798      4.7227252019711381
   232   1      8.6762002051589384      13.357884063977597      4.7227252019711381
   233   1      7.2301668376324484      19.201958341967796      2.3613626009855686
   234   1      5.7841334701059592      16.697355079971999      2.3613626009855686
   235   1      7.2301668376324484      15.862487325973397      4.7227252019711372
   236   1      5.7841334701059584      18.367090587969194      4.7227252019711372
   237   1      5.7841334701059592      13.357884063977599      4.7227252019711381
   238   1      10.122233572685429      19.201958341967796      2.3613626009855686
   239   1      10.122233572685429      15.862487325973396      4.7227252019711372
   240   1      8.6762002051589384      18.367090587969194      4.7227252019711372
   241   1      8.6762002051589384      10.018413047983199      7.0840878029567067
   242   1      7.2301668376324484      12.523016309978997      7.0840878029567067
   243   1      5.7841334701059584      15.027619571974796      7.0840878029567067
   244   1      5.7841334701059592      10.018413047983199      7.0840878029567067
   245   1      5.7841334701059584      11.688148555980398      9.4454504039422762
   246   1      10.122233572685429      12.523016309978997      7.0840878029567067
   247   1      7.2301668376324493      17.532222833970597      7.0840878029567058
   248   1      10.122233572685429      17.532222833970597      7.0840878029567076
   249   1      8.6762002051589384      15.027619571974796      7.0840878029567067
   250   1      7.2301668376324493      14.192751817976196      9.4454504039422762
   251   1      10.122233572685429      14.192751817976198       9.445450403942278
   252   1      8.6762002051589402      16.697355079971999      9.4454504039422762
   253   1      8.6762002051589384      11.688148555980398      9.4454504039422762
   254   1      7.2301668376324493      10.853280801981796      11.806813004927845
   255   1      10.122233572685429      10.853280801981798      11.806813004927847
   256   1      8.6762002051589402      13.357884063977599      11.806813004927847
   257   1      7.2301668376324502      19.201958341967796       9.445450403942278
   258   1      5.7841334701059592      16.697355079971999      9.4454504039422762
   259   1      7.2301668376324502      15.862487325973397      11.806813004927848
   260   1       5.784133470105961      18.367090587969198      11.806813004927845
   261   1      5.7841334701059592      13.357884063977599      11.806813004927847
   262   1      10.122233572685428      19.201958341967796      9.4454504039422762
   263   1      10.122233572685428      15.862487325973396      11.806813004927847
   264   1      8.6762002051589384      18.367090587969198      11.806813004927845
   265   1      8.6762002051589402      10.018413047983199      14.168175605913415
   266   1      7.2301668376324502      12.523016309978997      14.168175605913417
   267   1       5.784133470105961      15.027619571974798      14.168175605913415
   268   1      5.7841334701059592      10.018413047983199      14.168175605913415
   269   1       5.784133470105961      11.688148555980398      16.529538206898984
   270   1      10.122233572685428      12.523016309978996      14.168175605913415
   271   1      7.2301668376324484      17.532222833970597      14.168175605913417
   272   1      10.122233572685428      17.532222833970597      14.168175605913413
   273   1      8.6762002051589384      15.027619571974798      14.168175605913415
   274   1      7.2301668376324484      14.192751817976196      16.529538206898984
   275   1      10.122233572685428      14.192751817976196       16.52953820689898
   276   1      8.6762002051589366      16.697355079971995      16.529538206898984
   277   1      8.6762002051589384      11.688148555980398      16.529538206898984
   278   1      7.2301668376324484      10.853280801981798      18.890900807884556
   279   1      10.122233572685428      10.853280801981798      18.890900807884552
   280   1      8.6762002051589366      13.357884063977597      18.890900807884552
   281   1      7.2301668376324475      19.201958341967796       16.52953820689898
   282   1      5.7841334701059584      16.697355079971995      16.529538206898984
   283   1      7.2301668376324475      15.862487325973396      18.890900807884549
   284   1      5.7841334701059575      18.367090587969194      18.890900807884552
   285   1      5.7841334701059584      13.357884063977597      18.890900807884552
   286   1      10.122233572685428      19.201958341967796      16.529538206898984
   287   1      10.122233572685428      15.862487325973397      18.890900807884552
   288   1      8.6762002051589384      18.367090587969198      18.890900807884552
   289   1      14.460333675264897 -4.0729702616322675e-16  3.9385393406719009e-16
   290   1      13.014300307738408      2.5046032619957992  3.8963323370848185e-16
   291   1      11.568266940211917      5.0092065239915984  3.3517725756690108e-16
   292   1      11.568266940211918 -1.4820193699055636e-16 -2.1782390456632307e-16
   293   1      11.568266940211917      1.6697355079971992      2.3613626009855695
   294   1      15.906367042791388      2.5046032619957996  1.6758862878345054e-16
   295   1      13.014300307738408      7.5138097859873989  5.8676676500289005e-17
   296   1      15.906367042791386      7.5138097859873989  5.8676676500289005e-17
   297   1      14.460333675264897      5.0092065239915993  3.3517725756690108e-16
   298   1      13.014300307738408      4.1743387699929997       2.361362600985569
   299   1      15.906367042791386      4.1743387699929997       2.361362600985569
   300   1      14.460333675264897      6.6789420319887984       2.361362600985569
   301   1      14.460333675264897      1.6697355079971998      2.3613626009855695
   302   1      13.014300307738408     0.83486775399859992      4.7227252019711381
   303   1      15.906367042791386     0.83486775399859992      4.7227252019711381
   304   1      14.460333675264897      3.3394710159943992      4.7227252019711381
   305   1      13.014300307738408      9.1835452939845972      2.3613626009855686
   306   1      11.568266940211918      6.6789420319887993       2.361362600985569
   307   1      13.014300307738408      5.8440742779901989      4.7227252019711381
   308   1      11.568266940211917      8.3486775399859994      4.7227252019711381
   309   1      11.568266940211918      3.3394710159943997      4.7227252019711381
   310   1      15.906367042791388      9.1835452939845972      2.3613626009855686
   311   1      15.906367042791388      5.8440742779901989      4.7227252019711381
   312   1      14.460333675264899      8.3486775399859976      4.7227252019711372
   313   1      14.460333675264897 -1.4820193699055636e-16      7.0840878029567076
   314   1      13.014300307738408      2.5046032619957992      7.0840878029567067
   315   1      11.568266940211917      5.0092065239915993      7.0840878029567076
   316   1      11.568266940211918  2.9588727285950626e-16      7.0840878029567076
   317   1      11.568266940211917      1.6697355079971998      9.4454504039422762
   318   1      15.906367042791388      2.5046032619957992      7.0840878029567067
   319   1      13.014300307738408      7.5138097859873989      7.0840878029567076
   320   1      15.906367042791389      7.5138097859873989      7.0840878029567094
   321   1      14.460333675264899      5.0092065239915984      7.0840878029567067
   322   1      13.014300307738408      4.1743387699929988      9.4454504039422762
   323   1      15.906367042791389      4.1743387699929988       9.445450403942278
   324   1      14.460333675264899      6.6789420319887993       9.445450403942278
   325   1      14.460333675264899      1.6697355079971989      9.4454504039422762
   326   1      13.014300307738408      0.8348677539985998      11.806813004927845
   327   1      15.906367042791389      0.8348677539985998      11.806813004927847
   328   1      14.460333675264899      3.3394710159944001      11.806813004927847
   329   1      13.014300307738409       9.183545293984599       9.445450403942278
   330   1      11.568266940211918      6.6789420319887984      9.4454504039422762
   331   1      13.014300307738409      5.8440742779901989      11.806813004927847
   332   1       11.56826694021192      8.3486775399859994      11.806813004927847
   333   1      11.568266940211918      3.3394710159943992      11.806813004927845
   334   1      15.906367042791386      9.1835452939845972       9.445450403942278
   335   1      15.906367042791386       5.844074277990198      11.806813004927847
   336   1      14.460333675264897      8.3486775399859976      11.806813004927847
   337   1      14.460333675264899  5.9177454571901252e-16      14.168175605913417
   338   1      13.014300307738409      2.5046032619957996      14.168175605913415
   339   1       11.56826694021192      5.0092065239916002      14.168175605913415
   340   1      11.568266940211918 -2.9640387398111271e-16      14.168175605913415
   341   1       11.56826694021192      1.6697355079972007      16.529538206898984
   342   1      15.906367042791386      2.5046032619957987      14.168175605913415
   343   1      13.014300307738408      7.5138097859873971      14.168175605913415
   344   1      15.906367042791386      7.5138097859873971      14.168175605913413
   345   1      14.460333675264897      5.0092065239915984      14.168175605913415
   346   1      13.014300307738408      4.1743387699929979      16.529538206898984
   347   1      15.906367042791386      4.1743387699929979      16.529538206898984
   348   1      14.460333675264897      6.6789420319887975      16.529538206898984
   349   1      14.460333675264897      1.6697355079971989      16.529538206898984
   350   1      13.014300307738408      0.8348677539985988      18.890900807884552
   351   1      15.906367042791386      0.8348677539985988      18.890900807884552
   352   1      14.460333675264897      3.3394710159943979      18.890900807884552
   353   1      13.014300307738406      9.1835452939845972      16.529538206898984
   354   1      11.568266940211917      6.6789420319887975      16.529538206898984
   355   1      13.014300307738406      5.8440742779901971      18.890900807884552
   356   1      11.568266940211917      8.3486775399859958      18.890900807884552
   357   1      11.568266940211917      3.3394710159943979      18.890900807884552
   358   1      15.906367042791388       9.183545293984599      16.529538206898984
   359   1      15.906367042791388      5.8440742779901989      18.890900807884552