(written by ASE)

768 atoms
1 atom types

0.0      20.449528111914955  xlo xhi
0.0      21.690000000000001  ylo yhi
0.0      20.449528111914955  zlo zhi

Atoms # atomic

     1   1      2.5561910139893693                       0 -2.0487956358494867e-16
     2   1      3.8342865209840538      1.8074999999999999      1.2780955069946847
     3   1                       0                       0                       0
     4   1      1.2780955069946844      1.8074999999999999      1.2780955069946844
     5   1 -2.0487956358494867e-16                       0      2.5561910139893693
     6   1      2.5561910139893693                       0      2.5561910139893693
     7   1      3.8342865209840538      1.8074999999999999      3.8342865209840538
     8   1      1.2780955069946847      1.8074999999999999      3.8342865209840538
     9   1      2.5561910139893693                       0      5.1123820279787386
    10   1      3.8342865209840542      1.8074999999999999      6.3904775349734226
    11   1  -9.574063543314236e-17                       0      5.1123820279787386
    12   1      1.2780955069946844      1.8074999999999999      6.3904775349734235
    13   1  7.8433651775317769e-17                       0      7.6685730419681075
    14   1      2.5561910139893693                       0      7.6685730419681075
    15   1      3.8342865209840542      1.8074999999999999      8.9466685489627924
    16   1      1.2780955069946847      1.8074999999999999      8.9466685489627924
    17   1      2.5561910139893689                       0      10.224764055957476
    18   1      3.8342865209840538      1.8074999999999999      11.502859562952162
    19   1 -1.9148127086628472e-16                       0      10.224764055957477
    20   1      1.2780955069946838      1.8074999999999999       11.50285956295216
    21   1 -1.0894331769813972e-15                       0      12.780955069946845
    22   1      2.5561910139893689                       0      12.780955069946847
    23   1      3.8342865209840529      1.8074999999999999       14.05905057694153
    24   1      1.2780955069946842      1.8074999999999999      14.059050576941532
    25   1      2.5561910139893689                       0      15.337146083936215
    26   1      3.8342865209840542      1.8074999999999999        16.6152415909309
    27   1  1.5686730355063554e-16                       0      15.337146083936215
    28   1      1.2780955069946842      1.8074999999999999        16.6152415909309
    29   1 -7.4108460256447692e-16                       0      17.893337097925585
    30   1      2.5561910139893693                       0      17.893337097925585
    31   1      3.8342865209840546      1.8074999999999999       19.17143260492027
    32   1      1.2780955069946844      1.8074999999999999       19.17143260492027
    33   1      2.5561910139893693      3.6150000000000002 -2.0487956358494867e-16
    34   1      3.8342865209840538      5.4225000000000003      1.2780955069946847
    35   1                       0      3.6150000000000002                       0
    36   1      1.2780955069946844      5.4225000000000003      1.2780955069946844
    37   1 -2.0487956358494867e-16      3.6150000000000002      2.5561910139893693
    38   1      2.5561910139893693      3.6150000000000002      2.5561910139893693
    39   1      3.8342865209840538      5.4225000000000003      3.8342865209840538
    40   1      1.2780955069946847      5.4225000000000003      3.8342865209840538
    41   1      2.5561910139893693      3.6150000000000002      5.1123820279787386
    42   1      3.8342865209840542      5.4225000000000003      6.3904775349734226
    43   1  -9.574063543314236e-17      3.6150000000000002      5.1123820279787386
    44   1      1.2780955069946844      5.4225000000000003      6.3904775349734235
    45   1  7.8433651775317769e-17      3.6150000000000002      7.6685730419681075
    46   1      2.5561910139893693      3.6150000000000002      7.6685730419681075
    47   1      3.8342865209840542      5.4225000000000003      8.9466685489627924
    48   1      1.2780955069946847      5.4225000000000003      8.9466685489627924
    49   1      2.5561910139893689      3.6150000000000002      10.224764055957476
    50   1      3.8342865209840538      5.4225000000000003      11.502859562952162
    51   1 -1.9148127086628472e-16      3.6150000000000002      10.224764055957477
    52   1      1.2780955069946838      5.4225000000000003       11.50285956295216
    53   1 -1.0894331769813972e-15      3.6150000000000002      12.780955069946845
    54   1      2.5561910139893689      3.6150000000000002      12.780955069946847
    55   1      3.8342865209840529      5.4225000000000003       14.05905057694153
    56   1      1.2780955069946842      5.4225000000000003      14.059050576941532
    57   1      2.5561910139893689      3.6150000000000002      15.337146083936215
    58   1      3.8342865209840542      5.4225000000000003        16.6152415909309
    59   1  1.5686730355063554e-16      3.6150000000000002      15.337146083936215
    60   1      1.2780955069946842      5.4225000000000003        16.6152415909309
    61   1 -7.4108460256447692e-16      3.6150000000000002      17.893337097925585
    62   1      2.5561910139893693      3.6150000000000002      17.893337097925585
    63   1      3.8342865209840546      5.4225000000000003       19.17143260492027
    64   1      1.2780955069946844      5.4225000000000003       19.17143260492027
    65   1      2.5561910139893693      7.2300000000000004 -2.0487956358494867e-16
    66   1      3.8342865209840538      9.0374999999999996      1.2780955069946847
    67   1                       0      7.2300000000000004                       0
    68   1      1.2780955069946844      9.0374999999999996      1.2780955069946844
    69   1 -2.0487956358494867e-16      7.2300000000000004      2.5561910139893693
    70   1      2.5561910139893693      7.2300000000000004      2.5561910139893693
    71   1      3.8342865209840538      9.0374999999999996      3.8342865209840538
    72   1      1.2780955069946847      9.0374999999999996      3.8342865209840538
    73   1      2.5561910139893693      7.2300000000000004      5.1123820279787386
    74   1      3.8342865209840542      9.0374999999999996      6.3904775349734226
    75   1  -9.574063543314236e-17      7.2300000000000004      5.1123820279787386
    76   1      1.2780955069946844      9.0374999999999996      6.3904775349734235
    77   1  7.8433651775317769e-17      7.2300000000000004      7.6685730419681075
    78   1      2.5561910139893693      7.2300000000000004      7.6685730419681075
    79   1      3.8342865209840542      9.0374999999999996      8.9466685489627924
    80   1      1.2780955069946847      9.0374999999999996      8.9466685489627924
    81   1      2.5561910139893689      7.2300000000000004      10.224764055957476
    82   1      3.8342865209840538      9.0374999999999996      11.502859562952162
    83   1 -1.9148127086628472e-16      7.2300000000000004      10.224764055957477
    84   1      1.2780955069946838      9.0374999999999996       11.50285956295216
    85   1 -1.0894331769813972e-15      7.2300000000000004      12.780955069946845
    86   1      2.5561910139893689      7.2300000000000004      12.780955069946847
    87   1      3.8342865209840529      9.0374999999999996       14.05905057694153
    88   1      1.2780955069946842      9.0374999999999996      14.059050576941532
    89   1      2.5561910139893689      7.2300000000000004      15.337146083936215
    90   1      3.8342865209840542      9.0374999999999996        16.6152415909309
    91   1  1.5686730355063554e-16      7.2300000000000004      15.337146083936215
    92   1      1.2780955069946842      9.0374999999999996        16.6152415909309
    93   1 -7.4108460256447692e-16      7.2300000000000004      17.893337097925585
    94   1      2.5561910139893693      7.2300000000000004      17.893337097925585
    95   1      3.8342865209840546      9.0374999999999996       19.17143260492027
    96   1      1.2780955069946844      9.0374999999999996       19.17143260492027
    97   1      2.5561910139893693      10.845000000000001 -2.0487956358494867e-16
    98   1      3.8342865209840538                 12.6525      1.2780955069946847
    99   1                       0      10.845000000000001                       0
   100   1      1.2780955069946844                 12.6525      1.2780955069946844
   101   1 -2.0487956358494867e-16      10.845000000000001      2.5561910139893693
   102   1      2.5561910139893693      10.845000000000001      2.5561910139893693
   103   1      3.8342865209840538                 12.6525      3.8342865209840538
   104   1      1.2780955069946847                 12.6525      3.8342865209840538
   105   1      2.5561910139893693      10.845000000000001      5.1123820279787386
   106   1      3.8342865209840542                 12.6525      6.3904775349734226
   107   1  -9.574063543314236e-17      10.845000000000001      5.1123820279787386
   108   1      1.2780955069946844                 12.6525      6.3904775349734235
   109   1  7.8433651775317769e-17      10.845000000000001      7.6685730419681075
   110   1      2.5561910139893693      10.845000000000001      7.6685730419681075
   111   1      3.8342865209840542                 12.6525      8.9466685489627924
   112   1      1.2780955069946847                 12.6525      8.9466685489627924
   113   1      2.5561910139893689      10.845000000000001      10.224764055957476
   114   1      3.8342865209840538                 12.6525      11.502859562952162
   115   1 -1.9148127086628472e-16      10.845000000000001      10.224764055957477
   116   1      1.2780955069946838                 12.6525       11.50285956295216
   117   1 -1.0894331769813972e-15      10.845000000000001      12.780955069946845
   118   1      2.5561910139893689      10.845000000000001      12.780955069946847
   119   1      3.8342865209840529                 12.6525       14.05905057694153
   120   1      1.2780955069946842                 12.6525      14.059050576941532
   121   1      2.5561910139893689      10.845000000000001      15.337146083936215
   122   1      3.8342865209840542                 12.6525        16.6152415909309
   123   1  1.5686730355063554e-16      10.845000000000001      15.337146083936215
   124   1      1.2780955069946842                 12.6525        16.6152415909309
   125   1 -7.4108460256447692e-16      10.845000000000001      17.893337097925585
   126   1      2.5561910139893693      10.845000000000001      17.893337097925585
   127   1      3.8342865209840546                 12.6525       19.17143260492027
   128   1      1.2780955069946844                 12.6525       19.17143260492027
   129   1      2.5561910139893693      14.460000000000001 -2.0487956358494867e-16
   130   1      3.8342865209840538      16.267500000000002      1.2780955069946847
   131   1                       0      14.460000000000001                       0
   132   1      1.2780955069946844      16.267500000000002      1.2780955069946844
   133   1 -2.0487956358494867e-16      14.460000000000001      2.5561910139893693
   134   1      2.5561910139893693      14.460000000000001      2.5561910139893693
   135   1      3.8342865209840538      16.267500000000002      3.8342865209840538
   136   1      1.2780955069946847      16.267500000000002      3.8342865209840538
   137   1      2.5561910139893693      14.460000000000001      5.1123820279787386
   138   1      3.8342865209840542      16.267500000000002      6.3904775349734226
   139   1  -9.574063543314236e-17      14.460000000000001      5.1123820279787386
   140   1      1.2780955069946844      16.267500000000002      6.3904775349734235
   141   1  7.8433651775317769e-17      14.460000000000001      7.6685730419681075
   142   1      2.5561910139893693      14.460000000000001      7.6685730419681075
   143   1      3.8342865209840542      16.267500000000002      8.9466685489627924
   144   1      1.2780955069946847      16.267500000000002      8.9466685489627924
   145   1      2.5561910139893689      14.460000000000001      10.224764055957476
   146   1      3.8342865209840538      16.267500000000002      11.502859562952162
   147   1 -1.9148127086628472e-16      14.460000000000001      10.224764055957477
   148   1      1.2780955069946838      16.267500000000002       11.50285956295216
   149   1 -1.0894331769813972e-15      14.460000000000001      12.780955069946845
   150   1      2.5561910139893689      14.460000000000001      12.780955069946847
   151   1      3.8342865209840529      16.267500000000002       14.05905057694153
   152   1      1.2780955069946842      16.267500000000002      14.059050576941532
   153   1      2.5561910139893689      14.460000000000001      15.337146083936215
   154   1      3.8342865209840542      16.267500000000002        16.6152415909309
   155   1  1.5686730355063554e-16      14.460000000000001      15.337146083936215
   156   1      1.2780955069946842      16.267500000000002        16.6152415909309
   157   1 -7.4108460256447692e-16      14.460000000000001      17.893337097925585
   158   1      2.5561910139893693      14.460000000000001      17.893337097925585
   159   1      3.8342865209840546      16.267500000000002       19.17143260492027
   160   1      1.2780955069946844      16.267500000000002       19.17143260492027
   161   1      2.5561910139893693      18.075000000000003 -2.0487956358494867e-16
   162   1      3.8342865209840538      19.882500000000004      1.2780955069946847
   163   1                       0      18.075000000000003                       0
   164   1      1.2780955069946844      19.882500000000004      1.2780955069946844
   165   1 -2.0487956358494867e-16      18.075000000000003      2.5561910139893693
   166   1      2.5561910139893693      18.075000000000003      2.5561910139893693
   167   1      3.8342865209840538      19.882500000000004      3.8342865209840538
   168   1      1.2780955069946847      19.882500000000004      3.8342865209840538
   169   1      2.5561910139893693      18.075000000000003      5.1123820279787386
   170   1      3.8342865209840542      19.882500000000004      6.3904775349734226
   171   1  -9.574063543314236e-17      18.075000000000003      5.1123820279787386
   172   1      1.2780955069946844      19.882500000000004      6.3904775349734235
   173   1  7.8433651775317769e-17      18.075000000000003      7.6685730419681075
   174   1      2.5561910139893693      18.075000000000003      7.6685730419681075
   175   1      3.8342865209840542      19.882500000000004      8.9466685489627924
   176   1      1.2780955069946847      19.882500000000004      8.9466685489627924
   177   1      2.5561910139893689      18.075000000000003      10.224764055957476
   178   1      3.8342865209840538      19.882500000000004      11.502859562952162
   179   1 -1.9148127086628472e-16      18.075000000000003      10.224764055957477
   180   1      1.2780955069946838      19.882500000000004       11.50285956295216
   181   1 -1.0894331769813972e-15      18.075000000000003      12.780955069946845
   182   1      2.5561910139893689      18.075000000000003      12.780955069946847
   183   1      3.8342865209840529      19.882500000000004       14.05905057694153
   184   1      1.2780955069946842      19.882500000000004      14.059050576941532
   185   1      2.5561910139893689      18.075000000000003      15.337146083936215
   186   1      3.8342865209840542      19.882500000000004        16.6152415909309
   187   1  1.5686730355063554e-16      18.075000000000003      15.337146083936215
   188   1      1.2780955069946842      19.882500000000004        16.6152415909309
   189   1 -7.4108460256447692e-16      18.075000000000003      17.893337097925585
   190   1      2.5561910139893693      18.075000000000003      17.893337097925585
   191   1      3.8342865209840546      19.882500000000004       19.17143260492027
   192   1      1.2780955069946844      19.882500000000004       19.17143260492027
   193   1      7.6685730419681075                       0  7.8433651775317769e-17
   194   1      8.9466685489627924      1.8074999999999999      1.2780955069946847
   195   1      5.1123820279787386                       0  -9.574063543314236e-17
   196   1      6.3904775349734235      1.8074999999999999      1.2780955069946844
   197   1      5.1123820279787386                       0      2.5561910139893693
   198   1      7.6685730419681075                       0      2.5561910139893693
   199   1      8.9466685489627924      1.8074999999999999      3.8342865209840542
   200   1      6.3904775349734235      1.8074999999999999      3.8342865209840538
   201   1      7.6685730419681075                       0      5.1123820279787378
   202   1      8.9466685489627924      1.8074999999999999      6.3904775349734226
   203   1      5.1123820279787386                       0      5.1123820279787386
   204   1      6.3904775349734226      1.8074999999999999      6.3904775349734226
   205   1      5.1123820279787378                       0      7.6685730419681075
   206   1      7.6685730419681075                       0      7.6685730419681075
   207   1      8.9466685489627924      1.8074999999999999      8.9466685489627924
   208   1      6.3904775349734226      1.8074999999999999      8.9466685489627924
   209   1      7.6685730419681075                       0      10.224764055957476
   210   1      8.9466685489627924      1.8074999999999999      11.502859562952162
   211   1      5.1123820279787386                       0      10.224764055957477
   212   1      6.3904775349734226      1.8074999999999999       11.50285956295216
   213   1      5.1123820279787378                       0      12.780955069946845
   214   1      7.6685730419681075                       0      12.780955069946847
   215   1      8.9466685489627924      1.8074999999999999      14.059050576941532
   216   1      6.3904775349734235      1.8074999999999999       14.05905057694153
   217   1      7.6685730419681084                       0      15.337146083936215
   218   1      8.9466685489627942      1.8074999999999999        16.6152415909309
   219   1      5.1123820279787386                       0      15.337146083936215
   220   1      6.3904775349734235      1.8074999999999999        16.6152415909309
   221   1      5.1123820279787386                       0      17.893337097925585
   222   1      7.6685730419681084                       0      17.893337097925585
   223   1      8.9466685489627906      1.8074999999999999       19.17143260492027
   224   1      6.3904775349734235      1.8074999999999999       19.17143260492027
   225   1      7.6685730419681075      3.6150000000000002  7.8433651775317769e-17
   226   1      8.9466685489627924      5.4225000000000003      1.2780955069946847
   227   1      5.1123820279787386      3.6150000000000002  -9.574063543314236e-17
   228   1      6.3904775349734235      5.4225000000000003      1.2780955069946844
   229   1      5.1123820279787386      3.6150000000000002      2.5561910139893693
   230   1      7.6685730419681075      3.6150000000000002      2.5561910139893693
   231   1      8.9466685489627924      5.4225000000000003      3.8342865209840542
   232   1      6.3904775349734235      5.4225000000000003      3.8342865209840538
   233   1      7.6685730419681075      3.6150000000000002      5.1123820279787378
   234   1      8.9466685489627924      5.4225000000000003      6.3904775349734226
   235   1      5.1123820279787386      3.6150000000000002      5.1123820279787386
   236   1      6.3904775349734226      5.4225000000000003      6.3904775349734226
   237   1      5.1123820279787378      3.6150000000000002      7.6685730419681075
   238   1      7.6685730419681075      3.6150000000000002      7.6685730419681075
   239   1      8.9466685489627924      5.4225000000000003      8.9466685489627924
   240   1      6.3904775349734226      5.4225000000000003      8.9466685489627924
   241   1      7.6685730419681075      3.6150000000000002      10.224764055957476
   242   1      8.9466685489627924      5.4225000000000003      11.502859562952162
   243   1      5.1123820279787386      3.6150000000000002      10.224764055957477
   244   1      6.3904775349734226      5.4225000000000003       11.50285956295216
   245   1      5.1123820279787378      3.6150000000000002      12.780955069946845
   246   1      7.6685730419681075      3.6150000000000002      12.780955069946847
   247   1      8.9466685489627924      5.4225000000000003      14.059050576941532
   248   1      6.3904775349734235      5.4225000000000003       14.05905057694153
   249   1      7.6685730419681084      3.6150000000000002      15.337146083936215
   250   1      8.9466685489627942      5.4225000000000003        16.6152415909309
   251   1      5.1123820279787386      3.6150000000000002      15.337146083936215
   252   1      6.3904775349734235      5.4225000000000003        16.6152415909309
   253   1      5.1123820279787386      3.6150000000000002      17.893337097925585
   254   1      7.6685730419681084      3.6150000000000002      17.893337097925585
   255   1      8.9466685489627906      5.4225000000000003       19.17143260492027
   256   1      6.3904775349734235      5.4225000000000003       19.17143260492027
   257   1      7.6685730419681075      7.2300000000000004  7.8433651775317769e-17
   258   1      8.9466685489627924      9.0374999999999996      1.2780955069946847
   259   1      5.1123820279787386      7.2300000000000004  -9.574063543314236e-17
   260   1      6.3904775349734235      9.0374999999999996      1.2780955069946844
   261   1      5.1123820279787386      7.2300000000000004      2.5561910139893693
   262   1      7.6685730419681075      7.2300000000000004      2.5561910139893693
   263   1      8.9466685489627924      9.0374999999999996      3.8342865209840542
   264   1      6.3904775349734235      9.0374999999999996      3.8342865209840538
   265   1      7.6685730419681075      7.2300000000000004      5.1123820279787378
   266   1      8.9466685489627924      9.0374999999999996      6.3904775349734226
   267   1      5.1123820279787386      7.2300000000000004      5.1123820279787386
   268   1      6.3904775349734226      9.0374999999999996      6.3904775349734226
   269   1      5.1123820279787378      7.2300000000000004      7.6685730419681075
   270   1      7.6685730419681075      7.2300000000000004      7.6685730419681075
   271   1      8.9466685489627924      9.0374999999999996      8.9466685489627924
   272   1      6.3904775349734226      9.0374999999999996      8.9466685489627924
   273   1      7.6685730419681075      7.2300000000000004      10.224764055957476
   274   1      8.9466685489627924      9.0374999999999996      11.502859562952162
   275   1      5.1123820279787386      7.2300000000000004      10.224764055957477
   276   1      6.3904775349734226      9.0374999999999996       11.50285956295216
   277   1      5.1123820279787378      7.2300000000000004      12.780955069946845
   278   1      7.6685730419681075      7.2300000000000004      12.780955069946847
   279   1      8.9466685489627924      9.0374999999999996      14.059050576941532
   280   1      6.3904775349734235      9.0374999999999996       14.05905057694153
   281   1      7.6685730419681084      7.2300000000000004      15.337146083936215
   282   1      8.9466685489627942      9.0374999999999996        16.6152415909309
   283   1      5.1123820279787386      7.2300000000000004      15.337146083936215
   284   1      6.3904775349734235      9.0374999999999996        16.6152415909309
   285   1      5.1123820279787386      7.2300000000000004      17.893337097925585
   286   1      7.6685730419681084      7.2300000000000004      17.893337097925585
   287   1      8.9466685489627906      9.0374999999999996       19.17143260492027
   288   1      6.3904775349734235      9.0374999999999996       19.17143260492027
   289   1      7.6685730419681075      10.845000000000001  7.8433651775317769e-17
   290   1      8.9466685489627924                 12.6525      1.2780955069946847
   291   1      5.1123820279787386      10.845000000000001  -9.574063543314236e-17
   292   1      6.3904775349734235                 12.6525      1.2780955069946844
   293   1      5.1123820279787386      10.845000000000001      2.5561910139893693
   294   1      7.6685730419681075      10.845000000000001      2.5561910139893693
   295   1      8.9466685489627924                 12.6525      3.8342865209840542
   296   1      6.3904775349734235                 12.6525      3.8342865209840538
   297   1      7.6685730419681075      10.845000000000001      5.1123820279787378
   298   1      8.9466685489627924                 12.6525      6.3904775349734226
   299   1      5.1123820279787386      10.845000000000001      5.1123820279787386
   300   1      6.3904775349734226                 12.6525      6.3904775349734226
   301   1      5.1123820279787378      10.845000000000001      7.6685730419681075
   302   1      7.6685730419681075      10.845000000000001      7.6685730419681075
   303   1      8.9466685489627924                 12.6525      8.9466685489627924
   304   1      6.3904775349734226                 12.6525      8.9466685489627924
   305   1      7.6685730419681075      10.845000000000001      10.224764055957476
   306   1      8.9466685489627924                 12.6525      11.502859562952162
   307   1      5.1123820279787386      10.845000000000001      10.224764055957477
   308   1      6.3904775349734226                 12.6525       11.50285956295216
   309   1      5.1123820279787378      10.845000000000001      12.780955069946845
   310   1      7.6685730419681075      10.845000000000001      12.780955069946847
   311   1      8.9466685489627924                 12.6525      14.059050576941532
   312   1      6.3904775349734235                 12.6525       14.05905057694153
   313   1      7.6685730419681084      10.845000000000001      15.337146083936215
   314   1      8.9466685489627942                 12.6525        16.6152415909309
   315   1      5.1123820279787386      10.845000000000001      15.337146083936215
   316   1      6.3904775349734235                 12.6525        16.6152415909309
   317   1      5.1123820279787386      10.845000000000001      17.893337097925585
   318   1      7.6685730419681084      10.845000000000001      17.893337097925585
   319   1      8.9466685489627906                 12.6525       19.17143260492027
   320   1      6.3904775349734235                 12.6525       19.17143260492027
   321   1      7.6685730419681075      14.460000000000001  7.8433651775317769e-17
   322   1      8.9466685489627924      16.267500000000002      1.2780955069946847
   323   1      5.1123820279787386      14.460000000000001  -9.574063543314236e-17
   324   1      6.3904775349734235      16.267500000000002      1.2780955069946844
   325   1      5.1123820279787386      14.460000000000001      2.5561910139893693
   326   1      7.6685730419681075      14.460000000000001      2.5561910139893693
   327   1      8.9466685489627924      16.267500000000002      3.8342865209840542
   328   1      6.3904775349734235      16.267500000000002      3.8342865209840538
   329   1      7.6685730419681075      14.460000000000001      5.1123820279787378
   330   1      8.9466685489627924      16.267500000000002      6.3904775349734226
   331   1      5.1123820279787386      14.460000000000001      5.1123820279787386
   332   1      6.3904775349734226      16.267500000000002      6.3904775349734226
   333   1      5.1123820279787378      14.460000000000001      7.6685730419681075
   334   1      7.6685730419681075      14.460000000000001      7.6685730419681075
   335   1      8.9466685489627924      16.267500000000002      8.9466685489627924
   336   1      6.3904775349734226      16.267500000000002      8.9466685489627924
   337   1      7.6685730419681075      14.460000000000001      10.224764055957476
   338   1      8.9466685489627924      16.267500000000002      11.502859562952162
   339   1      5.1123820279787386      14.460000000000001      10.224764055957477
   340   1      6.3904775349734226      16.267500000000002       11.50285956295216
   341   1      5.1123820279787378      14.460000000000001      12.780955069946845
   342   1      7.6685730419681075      14.460000000000001      12.780955069946847
   343   1      8.9466685489627924      16.267500000000002      14.059050576941532
   344   1      6.3904775349734235      16.267500000000002       14.05905057694153
   345   1      7.6685730419681084      14.460000000000001      15.337146083936215
   346   1      8.9466685489627942      16.267500000000002        16.6152415909309
   347   1      5.1123820279787386      14.460000000000001      15.337146083936215
   348   1      6.3904775349734235      16.267500000000002        16.6152415909309
   349   1      5.1123820279787386      14.460000000000001      17.893337097925585
   350   1      7.6685730419681084      14.460000000000001      17.893337097925585
   351   1      8.9466685489627906      16.267500000000002       19.17143260492027
   352   1      6.3904775349734235      16.267500000000002       19.17143260492027
   353   1      7.6685730419681075      18.075000000000003  7.8433651775317769e-17
   354   1      8.9466685489627924      19.882500000000004      1.2780955069946847
   355   1      5.1123820279787386      18.075000000000003  -9.574063543314236e-17
   356   1      6.3904775349734235      19.882500000000004      1.2780955069946844
   357   1      5.1123820279787386      18.075000000000003      2.5561910139893693
   358   1      7.6685730419681075      18.075000000000003      2.5561910139893693
   359   1      8.9466685489627924      19.882500000000004      3.8342865209840542