(written by ASE)

4263 atoms
2 atom types

0.0      31.066736431430968  xlo xhi
0.0      31.066736431430968  ylo yhi
0.0      63.730000000000004  zlo zhi

Atoms # atomic

     1   1   -0.072573120816736739   -0.045859384679742682       33.39430285493458
     2   1      1.3811497008135092      1.4495620145989063      35.482126033021103
     3   1    -0.18917609782287936    0.042453470208257647      37.499873830588783
     4   1      1.3857626591763603      1.4603814244210791      39.542771155618112
     5   1    0.095468061892116235   0.0014420325296825387      41.573942199342788
     6   1      1.4221871048920849      1.4114210224644441      43.535741471163995
     7   1    0.021037050309009781    0.050271607356154817      45.539330391805521
     8   1      1.3875875742904717      1.4265467974781325      47.537496220980387
     9   1  -0.0083263063932055344   -0.076273699715416143      49.571328432257289
    10   1      1.4253538545498141      1.3728271425261545      51.583929379749371
    11   1    0.020138934695466609     -0.0456228367784852      53.661647330612702
    12   1      1.4968132241914844      1.3876052970951591      55.664407593888605
    13   1  -0.0041357206294773807   -0.053866701003439404      57.713238478665488
    14   1      1.4877591260761565      1.3785042776781213      59.745280811460894
    15   1    0.015108230861865121    0.015982286593349933      61.642217489875655
    16   1   -0.041265023970855477      2.8190040558426044      33.327312569584571
    17   1      1.4209605684753974      4.2436654474112654      35.404496392618178
    18   1   -0.018388268075459287      2.7685884351758601      37.355601698689924
    19   1      1.3705011510338196      4.2678602883838099      39.399528353036395
    20   1   -0.048680795933369055      2.8096980407471746      41.541582146059028
    21   1      1.3924523206973731      4.2062841077306121      43.527100314623311
    22   1    0.016640409033094127      2.8319760206223981      45.504401819515437
    23   1      1.2837826328202884      4.3254678735142491      47.562802815411395
    24   1    0.048058600603207526      2.7984901864489466      49.613427230915157
    25   1      1.3400592176160928       4.226022536774062      51.645579210507805
    26   1 -0.00094156863735314503      2.8082672010547327      53.572846289527206
    27   1      1.3993309421567239      4.2502206916731726      55.626018903390481
    28   1   -0.079670844479268893      2.8928688075828601      57.721579447615795
    29   1      1.4576710236648684      4.2329077785366636      59.670439669398178
    30   1   -0.045644906254352323      2.8838721910827729      61.653455733324897
    31   1   -0.043933825944289712      5.6387196425648209      33.447049123517374
    32   1       1.373699273430558       7.052644169995526      35.448741739060097
    33   1   -0.055487161155940691      5.6542432987234186      37.418403788722095
    34   1      1.4281544594955098      6.9416493953797005      39.396379517082266
    35   1  -0.0064489532532452272      5.6880007804543355      41.471776855806993
    36   1      1.4570977590787713      7.1700424743090752      43.475203669309188
    37   1   -0.039193023855796517      5.6492668978130771      45.526132072096942
    38   1      1.4548767594629459      7.1258413039438695      47.518225405276411
    39   1    0.036079268877600781      5.6066760471076069      49.591060989337315
    40   1      1.4252866260353318      7.0905301952137201      51.539896217581571
    41   1   -0.035946148949940429      5.6987081730496438      53.511227425364645
    42   1      1.4227733610628424      7.1550233961925684      55.654983456509811
    43   1    0.025730974904448246      5.5852995827824783      57.731733723776017
    44   1      1.3842031828989183      7.0616740042587542      59.620386152162212
    45   1   -0.005411764973596361      5.5946539299186888      61.692780278119614
    46   1    0.024010084472617606       8.462903107085415      33.275598414057193
    47   1      1.4298770157978489      9.9098306491525854      35.455065647061318
    48   1    0.037009540393147008      8.3528231498906749      37.552003574972176
    49   1      1.4596390078186796      9.8841084259031664      39.475348118234017
    50   1    -0.11809096276287237       8.435300931877121      41.384117029212959
    51   1      1.3713199432327323      9.8171006783299291      43.493904721394635
    52   1  -0.0077559447085858314      8.4547218789643139      45.524116116621343
    53   1      1.4903030381339724      9.9221463816484317      47.552462703506045
    54   1  -0.0080087066441292872      8.4791433472194431      49.571727624008425
    55   1      1.4258410709422147       9.929979653812202       51.57611992404793
    56   1   -0.047861197211650247      8.4746635201942269      53.687476208802792
    57   1      1.3964050417698486      9.9878858939445578       55.66163344856944
    58   1   -0.014022183896389885      8.4689273422960554      57.682724541261926
    59   1      1.3975889430750716      9.8757579905515787      59.618379548636319
    60   1    0.011673196294920887      8.4577918471118743      61.766426841423289
    61   1     0.04402354287826829      11.200820075777683      33.350021847061647
    62   1      1.4066275850019727      12.700965402396262      35.423424981282579
    63   1   -0.038650271587859247      11.306856000284291      37.424725132235622
    64   1      1.3461157430440778      12.755762769799869      39.420671549727963
    65   1   -0.039184687275211322      11.334925192573618      41.508403144748407
    66   1      1.4293520118333072      12.685646292468515      43.515369734561979
    67   1    -0.01776442655616477      11.249710074154816      45.545661694010249
    68   1      1.4081613435954372      12.717158336818166      47.493572345165198
    69   1    0.024946037903270921      11.328477239177346      49.558686898607888
    70   1      1.3773451218396306      12.724928012379687      51.629082103708591
    71   1    0.090795831026085128      11.312861318664025      53.562071382977983
    72   1      1.5342916328927094      12.696298282525499      55.718897200606527
    73   1    0.034206160961187802      11.276179360115968      57.706841210942621
    74   1      1.4524344216218512      12.702610815428539      59.658221573472417
    75   1    0.080690181148791548      11.235018064886461        61.7307220804541
    76   1   0.0080049413059538523       14.13209647037456      33.438478561341583
    77   1      1.4153150075876801      15.507026928433998      35.425115684937758
    78   1   -0.072051054152995994      14.110900252321548      37.389540265542074
    79   1      1.3704842566009834      15.583520295041778      39.532528987056807
    80   1   -0.074366561578703319      14.110738797003373      41.445262709357898
    81   1      1.4898548625764076      15.597132979093143      43.571150117900139
    82   1   -0.043752691296652935      14.071324625066969      45.501869050570789
    83   1      1.4108746257892668      15.553971964966644      47.475147158087807
    84   1   -0.070344603252808835      14.107377691281632      49.552256654907836
    85   1       1.364886717484592      15.502472484480629      51.658092789871425
    86   1   -0.037118501109826348      14.071331335959579      53.642519928451172
    87   1      1.3499289711661915      15.614800339506012       55.61697153032415
    88   1   0.0085405197310941469      14.076999814202795      57.716131967387234
    89   1      1.4037956221974324      15.488908455620239      59.694325125073426
    90   1   -0.024413996985534984      14.123260551627109      61.641579272312711
    91   1   -0.017627883433807199      16.972176673922103      33.375974276621932
    92   1      1.4022874612425891      18.246851634267522      35.419804455020945
    93   1     0.10643802426383771      16.973415985893478      37.438092357004443
    94   1      1.4115737037085507       18.45264299282427      39.468731050475185
    95   1    -0.03348451433057624      16.915041248887874      41.527551121309976
    96   1      1.3824550260116673      18.328372156342695      43.544870361980649
    97   1     0.03135948625319334      16.970632973220212      45.529768297017682
    98   1      1.3878466135415433      18.339304133389913      47.615217836162415
    99   1    0.044311693767227975      16.994128223539885      49.549161390110072
   100   1      1.4323217326630675      18.426719018663405       51.59689800971303
   101   1    0.011703471903399203      16.934615909409391      53.632209538169441
   102   1      1.4541239605910903      18.324334910874651       55.70541260988719
   103   1   0.0042819410983396802      17.027263734987073      57.666407489804669
   104   1      1.3754412727785121      18.345810740224778      59.709981292182732
   105   1   -0.037314482513367865      16.989615925124426      61.768634399949299
   106   1   -0.024804699437481117      19.746659426532815      33.315910414464028
   107   1      1.3981835633193624       21.27998774407488      35.309279151329648
   108   1   -0.011200865654210249       19.79275672491303      37.407769387737446
   109   1      1.3372273657817215      21.153145174597199      39.410417769740732
   110   1  -0.0023996949342950341      19.734956085435584      41.544065316958914
   111   1      1.4106564085222402      21.199431701498664      43.532813183550402
   112   1   -0.047892213398747906      19.789784532309358      45.523976220377158
   113   1      1.3486639533602964      21.195486944398585      47.626786953509708
   114   1    0.028578838808531029      19.822811770767235      49.568739857589065
   115   1       1.460072780242226      21.275581633006748      51.672325462637289
   116   1     0.12044551599815612      19.836144403865923      53.629758448286879
   117   1      1.4335363131231005      21.133976961880734       55.57652167667483
   118   1  -0.0025606722004559413      19.638825714905135      57.639923562350596
   119   1      1.5151867249669488       21.17639979419608      59.674673475951138
   120   1    0.074825357891601149      19.833935537830122      61.736612037289575
   121   1   -0.018925249233189723      22.622412661333591      33.384177446030748
   122   1      1.4233251596736278      23.957376228416997      35.400952172823182
   123   1    -0.06375614921188083      22.506000279905095      37.444409462795349
   124   1      1.3945932488591106      23.969913409187985       39.49918380128139
   125   1   -0.047333648025374542      22.524441463859741      41.497487981160781
   126   1      1.4419471539032205      24.034709883131292       43.52624308753748
   127   1   -0.055960901176183242      22.565049613114411      45.558638812914637
   128   1      1.3660510627044558      23.947129080780158       47.50301681241033
   129   1   -0.007673141031004126      22.623511564880523      49.599135391332297
   130   1      1.4260575475017416      23.958819936866838      51.648084330008807
   131   1    0.041375094378671887      22.602471909747074      53.665373638673096
   132   1      1.4014052865336819      24.001107606916566      55.645080301373355
   133   1    0.001571113307626589      22.588744451009305      57.701225614079611
   134   1      1.4881777458473704      24.042680138622352      59.690562643674127
   135   1   -0.051555674655634411      22.663549459067781      61.646528071154421
   136   1    0.013652246220056697        25.4252797474613      33.419072805383379
   137   1      1.3315048430846348       26.86226762328743      35.439405692886083
   138   1     0.10367367169994726      25.373666522733743      37.484073134343205
   139   1      1.3188853707420152      26.780203713837111      39.465465555664224
   140   1   -0.026217993146704522      25.398003613344194      41.508075114806282
   141   1      1.3640022950407265       26.85389222822722      43.557930595342896
   142   1    -0.02773814024145135      25.405190519008077      45.528869311460404
   143   1      1.4127064999645436      26.837944370655158      47.442194185011672
   144   1    0.071344126334541846      25.402997958081226      49.584330486473213
   145   1      1.3570788035568442      26.857189019497724      51.723038987066204
   146   1    0.052014847399795297      25.447060717224822       53.58306410940164
   147   1      1.3507378847649336      26.790460816995196      55.757665637604084
   148   1   -0.031182588619466142      25.443012612302589      57.684869358124118
   149   1      1.4711788689721443      26.851592379128569      59.748110630370952
   150   1    0.035164641890106568      25.407859726010926      61.725701167987573
   151   1    0.034686943271400969      28.262123071067556      33.363434030436487
   152   1      1.4807034408681254      29.664350163518037      35.274668579851578
   153   1    0.039600020825608116      28.131180480352779       37.39015234482661
   154   1      1.3766291104891113      29.621798772097861      39.515275339761516
   155   1   0.0019842905410087167      28.212769110210797      41.466451269604541
   156   1      1.5303923466735263      29.674465813000985      43.505993731346123
   157   1    0.014211634974726564      28.291291162965681      45.477100047858684
   158   1      1.3493479515493749      29.736017104325597       47.52594769463915
   159   1     0.00415108020651882      28.204782585987708      49.540461306613253
   160   1      1.3915388773479496      29.698639575220959      51.657753638410178
   161   1  -0.0086898324101218876      28.249225594592737      53.673075782576646
   162   1      1.3691778098129874      29.681962573665032      55.623311491546261
   163   1    0.041492262285201552      28.310838783560701      57.746145490854005
   164   1      1.4496019471771815      29.674491868908621      59.703366818613311
   165   1    0.060681962652560699      28.155060064862369      61.786778715858311
   166   1      2.8459620649436661  -0.0075623024557352403      33.398594628440165
   167   1      4.2742489473203733      1.3791036486290809      35.538199685574405
   168   1      2.8311814638548163    0.026459399185652405      37.458854787764359
   169   1      4.2913927705188257      1.3861040967728229      39.447056141126453
   170   1       2.765405572313651    0.053196525267823175      41.428141636746965
   171   1      4.2250798942118646      1.4105083123506088      43.434267563821315
   172   1      2.7906149773784055     0.04668271447899397      45.541086708975087
   173   1      4.2438017455416794      1.4273446606218956      47.528005654788195
   174   1      2.8483794926583772    0.010636469830705226       49.62374541671177
   175   1      4.2705151938619466      1.3393922760054373      51.681338115134125
   176   1      2.7950357559051695    0.018460903670988502      53.618524787181286
   177   1       4.277968172020203      1.3848297013764648      55.681287221375932
   178   1      2.8676926367964248   -0.036684156919519699      57.599044461911888
   179   1      4.2965975565327534      1.4800547067926175      59.630172439004319
   180   1      2.8521943617060117  -0.0040823057326300439      61.759586861158859
   181   1       2.765960686264918      2.7446841267128419      33.332082704400968
   182   1      4.2224528179552783      4.3043790071222245       35.39663139484454
   183   1      2.7389358947231521      2.8165352227857228       37.38446677862094
   184   1      4.2363270659204604      4.2700829284568229      39.449444126799307
   185   1      2.8610302810445112      2.8601344055076252      41.380319162991306
   186   1       4.167265442904494      4.2413065159464187      43.434705225824409
   187   1      2.8037620288205982      2.8120748865689671      45.499772639011752
   188   1      4.3378667641821522      4.1936117704445994      47.558275320749523
   189   1      2.7434875617509653      2.8636106031174755      49.577870130988522
   190   1      4.1908375502759414      4.1824637840605394       51.63090055069317
   191   1      2.8720433031527168       2.868706296746089      53.611123436712923
   192   1      4.3445591795692735       4.196325462113859       55.62257051073945
   193   1      2.8970572073320824      2.7713383072611442      57.644698926529529
   194   1      4.2562449274522445       4.229888108958094      59.697987351590776
   195   1      2.7862464241156957      2.8795752874549643      61.602484424390269
   196   1      2.8816032470424582      5.5977178371571981      33.484603283536885
   197   1      4.1716783008328484      7.1052256226923509      35.433617369887031
   198   1      2.7553903386689287      5.6046520186489364      37.442290278862536
   199   1      4.2131741490776067       7.002596414310271      39.480506894537946
   200   1      2.8164753516904137       5.684219321592006      41.508491010712909
   201   1      4.2663057855286564      7.1221345045124069      43.445280711203658
   202   1      2.7509835533191063      5.6753976235337005      45.596427506315912
   203   1      4.2456862751896054       7.051674773977779      47.504282713761235
   204   1      2.8171826316361344      5.6861723396609136      49.624720930971115
   205   1      4.2320012790281778       7.069853221042619      51.669223494085813
   206   1      2.8874070281049029      5.6626147820224535      53.607696409546939
   207   1      4.2069389250038718      7.1029501837507354      55.642335837485049
   208   1      2.7549473111558571      5.6452579660511963      57.652117087830312
   209   1      4.2765695391004117      7.0398798486765104      59.740100704523101
   210   1      2.8119494571014636      5.6774197005161096      61.718041751766378
   211   1      2.8130365934279782      8.4401909360745897      33.446197532410089
   212   1      4.2497569164086419      9.9447738497921723      35.403940387473853
   213   1      2.8474046196670404      8.4044426062688515      37.382087615153786
   214   1      4.1620252070110864       9.784782591971819      39.463828780971717
   215   1      2.8359114386543349      8.5287870352135045      41.511415113471962
   216   1      4.2255997430162457      9.8636194601851468      43.539806864929218
   217   1      2.8654329460662149      8.5076142638595886      45.498414183694379
   218   1      4.2629388497937022      9.8375293548908456      47.466215075545726
   219   1      2.8397098055127779      8.4089592667360353      49.581559524037935
   220   1      4.2284337757630501      9.9542662652408538      51.688069936931775
   221   1       2.776632760549627      8.4819740357287046      53.592163618076995
   222   1       4.285734134235633      9.8537990352187155      55.622342037847268
   223   1      2.8921484354186968      8.4719812530330199      57.700854088315374
   224   1      4.1813596959887347       9.937136228772653      59.675132544757794
   225   1      2.8510972844253764      8.4671942525797679      61.728105514139855
   226   1      2.8259293166272363      11.256866594018591       33.36752177771907
   227   1      4.2455224878969586      12.803647084933592      35.332294472334347
   228   1      2.8158178325443104      11.220310904213692      37.353488344966969
   229   1      4.3076317095787502      12.717011319882946       39.51460900648258
   230   1      2.7836290931898988      11.246036083036547       41.52187824373167
   231   1      4.2425463607914953      12.652641426608238      43.549961287299801
   232   1      2.7928438843347303      11.218198217011752      45.478368126224922
   233   1      4.2101167686726964      12.665457677336708      47.537470399466429
   234   1      2.8777290085564444      11.305771895205799       49.65355994753029
   235   1      4.2184712793212027      12.744928539556811       51.63329457707291
   236   1      2.8595662514177191      11.197265065080192      53.632298282538351
   237   1      4.3156869524157981      12.710387571988148      55.612904548232173
   238   1      2.8164630840412008      11.308959384340827      57.700248718186153
   239   1      4.2656154728507971      12.750812591618676      59.646344406085504
   240   1      2.7723424749172105      11.323446715425844      61.681571707429001
   241   1      2.7971857134023357      14.176665824938027      33.420618362821038
   242   1      4.2306926179278186      15.604805275774776       35.50556892744396
   243   1      2.8936816416736724      14.105347543521894      37.403497359518752
   244   1      4.1495436429664272      15.500597247596149       39.42895548377107
   245   1      2.8758183653716944      14.062510767281598      41.446261856865149
   246   1      4.1943181345804526      15.473756767244932      43.620007284395747
   247   1      2.8521261939333207      14.163543727614975      45.537756361587356
   248   1      4.2938453226581386      15.497453264988732      47.600380883277239
   249   1       2.755981425347624      14.178913393672747      49.563919803850752
   250   1      4.2728374021454201      15.375904546107233      51.648655228907721
   251   1      2.7428082634564523      14.141583721264102      53.661645288211609
   252   1      4.1957771208200052      15.581578493894954      55.666918064472227
   253   1       2.877804912918672      14.110097768149043      57.664972918682857
   254   1      4.2440872689385252      15.539379776265596      59.650949253692609
   255   1      2.9363421744821232      14.135205130565177       61.66891001762226
   256   1       2.878911271919014      16.894660103358085       33.39178579689343
   257   1      4.2376586688888933      18.303282816292498      35.419041530407263
   258   1      2.7222719801133888      16.916931577257298      37.448746895059656
   259   1      4.2224787542343565      18.334242661677859      39.456119527914744
   260   1       2.914647998186088      16.954991428816498      41.524400576295044
   261   1      4.2710737629836206      18.360285175029272      43.475596138745097
   262   1      2.7629959227676006      16.990009650346796      45.519020398390936
   263   1      4.4080616422034229      18.387406694991405      47.550078160542121
   264   1      2.8671070370767904      16.861284294689181      49.590551970066059
   265   1       4.206825689501243      18.264853419546146      51.514309425528907
   266   1      2.8127407346351152        17.0064591727905      53.631862255431244
   267   1        4.25420938559955      18.338379909546422      55.595885512467184
   268   1      2.8925909620846655      17.008127952930888       57.73829882266466
   269   1      4.3240211248651841      18.466877702599252      59.727685430273816
   270   1      2.8840313444324766      16.909867331472128      61.701397800171648
   271   1       2.745509190380572      19.734250879504575      33.375948121378599
   272   1      4.1681773148499435      21.226868907154177      35.324629477528546
   273   1      2.8598672050456284      19.727183349215007      37.458013310238556
   274   1      4.2266591670008475      21.155554035127505      39.420886797588409
   275   1      2.8247498157931137      19.832230754746224       41.48654432720712
   276   1      4.2320825621131757      21.179830178448967      43.399162501092363
   277   1      2.9113024414377624      19.861328106807797      45.520810003782344
   278   1      4.2604178111694688      21.139194023995852      47.585265442096855
   279   1       2.728657654594806      19.882229080296106      49.501090352401839
   280   1      4.1763953026008211       21.15183734771869        51.6164801572071
   281   1       2.872193417159727      19.789337712130866      53.687793432305092
   282   1      4.1919828224197051      21.171270227270483      55.670469301632359
   283   1      2.9244481106496978      19.775314034569913      57.664189663267898
   284   1      4.2950077116866003      21.177819090821355      59.644460185322615
   285   1      2.8299856779272985      19.731390402496583      61.696173044797796
   286   1      2.7529765115417297      22.595389219017864      33.423592897817542
   287   1      4.2037196469219689      24.032358439464058      35.510446327327756
   288   1      2.8210623601198881      22.654720915701166      37.407435658186643
   289   1      4.1741104418982102      23.908099296750915       39.48105820269749
   290   1      2.8341556154826155      22.630778146907662      41.431610792637173
   291   1      4.2170277945960812      24.014804255693079      43.527159346130659
   292   1      2.9171090794310772       22.71449838938155      45.361336279809741
   293   1       4.256458628803184      24.005029469343217      47.611706271000998
   294   1       2.735771821399541      22.546258109506983      49.539825757534118
   295   1      4.2931506021873558      23.889278033490339      51.621528937134329
   296   1      2.8266007233461758      22.586601813689381       53.61654872381586
   297   1      4.1492734867401539      23.975112945664691      55.648460511442678
   298   1      2.8256628767710548      22.577363361538936      57.707589035870335
   299   1      4.2933987045294337      24.004496252494388      59.713781211495807
   300   1      2.9075670532840858      22.643657055856483      61.734827126262701
   301   1      2.8204931120569166      25.410659801112839      33.367687899641979
   302   1      4.2548314566385876      26.928416255514122      35.479020902763153
   303   1      2.8547920939311786      25.473684347477651      37.516123555023604
   304   1      4.1900538682326296      26.745796587962062      39.376066659083605
   305   1      2.9105032021546782      25.438214382014639      41.466192592316318
   306   1      4.3127041014483973      26.793806510834898       43.49040590250614
   307   1      2.8582723949586284      25.442571640451639      45.503346924749486
   308   1      4.1798137256068868      26.805335827151612      47.479163754505812
   309   1      2.7468324267345103      25.393280669616257      49.583360053492605
   310   1      4.2123358447914763      26.838486729744844      51.538463036408707
   311   1      2.8471334867539957      25.446513890802336      53.692288043988384
   312   1      4.1805141754583861        26.8734298660648      55.663977610990827
   313   1      2.7750282310556131      25.427664982246473        57.6931992518887
   314   1      4.3064813375588029      26.826412503660112       59.69584962921558
   315   1      2.7969765638590678      25.391463905086326      61.719192101700791
   316   1      2.8098785261119241      28.195641721213594      33.362622738879828
   317   1      4.2500850459190973      29.607748809115225      35.437246722982344
   318   1      2.8456645251442128      28.350016421287894       37.44905046583991
   319   1       4.177019868855143       29.61885972370581      39.446245316177801
   320   1      2.8875621162673193      28.250721765632637      41.537555039254961
   321   1      4.2726922754306624      29.707184740182608      43.490648511181789
   322   1      2.7523244683701025      28.268797216620385      45.600504096229997
   323   1      4.1512483591771661      29.656724783283636      47.493680194407204
   324   1      2.7786853436352295      28.237038473501062       49.65559306684473
   325   1      4.2325004825394794      29.630646276734851      51.605306460127302
   326   1      2.8142273230552832      28.226324668369273      53.717133174766964
   327   1      4.2817817946800041       29.68308520877558      55.675983938197859
   328   1      2.7674599678940224      28.232789537317583      57.673012719555771
   329   1      4.2668360502060771      29.681369109247889      59.603153555410046
   330   1      2.8433994457286556      28.220369669806026      61.656271031417972
   331   1      5.6206515066862961   -0.095109220904864317      33.344422540646079
   332   1      7.0891062443693853       1.511327853587384      35.429507607121103
   333   1       5.587837871464326    0.058023397612848554      37.396296335918159
   334   1      7.0870846405880714       1.443494882880312      39.559427184665061
   335   1      5.7517128241573419   -0.020300804612862947      41.493824831224018
   336   1       7.123392382599163      1.5086187105533491      43.480546895232365
   337   1      5.6318793481932472    0.036938330028963191      45.505091319629194
   338   1      7.0280562106884386      1.4417990043984761      47.520816585543521
   339   1      5.6510148492466499   -0.049964032712453324      49.678722233319192
   340   1      7.0786506720683571      1.3658178824051976      51.624720863288253
   341   1      5.6531853537001417     0.00560540218924879      53.698607024364165
   342   1      7.0577309603435898      1.3634062933967168      55.680517141167819
   343   1       5.667083655830063   -0.081876049935964465      57.687367494447457
   344   1      6.9130812654889313      1.4246450622264082      59.782137568958078
   345   1      5.6441696731682649    0.066081603043503884      61.771251378625848
   346   1       5.657190009300801       2.833884040496593      33.369032821126254
   347   1      7.0099307842600016      4.2454874394492697       35.38067060040801
   348   1      5.6258744045955815      2.8246981865959264      37.459273646223281
   349   1      7.0593545055230491      4.1619002362080773      39.472296600612999
   350   1      5.6135395963355457      2.8013057802096291      41.526514613953552
   351   1      7.0504235369742467      4.3516051473472519       43.52555605330307
   352   1      5.6023691314768529      2.8374713019229336      45.476522969919252
   353   1      7.0996418191965605       4.301770515768208      47.530010902872469
   354   1      5.6648875115615684      2.7843254411260303      49.530326655627341
   355   1      7.0529079964068861      4.1998741133920428      51.595642782265784
   356   1      5.5935275701540021      2.7782004002461047      53.582720987738455
   357   1      7.0772570276038689      4.2422513674008249      55.623656480566005
   358   1       5.588944296775912      2.8592512634210809      57.691853966222531
   359   1       7.007583411023024      4.2230511988450514      59.789515311516283