(written by ASE)

4368 atoms
2 atom types

0.0      31.515932880500621  xlo xhi
0.0      31.225455000963073  ylo yhi
0.0      64.317107242898857  zlo zhi

Atoms # atomic

     1   1   -0.043287993537053066    -0.10199140530691782      33.703578472536329
     2   1      1.8463042857082714      1.5109068782706745      35.092225854145106
     3   1   -0.049608736623190319   -0.030823384917861199      36.464313929001484
     4   1       1.985210997158078      1.4074730656235233      37.978724157856377
     5   1   -0.028181233248457824   -0.010764331861731636      39.400118896870204
     6   1      2.0265774475317992        1.40765043579328      40.877646473295385
     7   1   0.0018557384793222852    0.075224163087947063       42.28754675483794
     8   1      2.1242032469125194       1.373365150482541      43.728620731001691
     9   1   -0.051141605757447965   -0.014390661193514918      45.205923751185892
    10   1      1.9919432126800902      1.3769112454713113      46.577013984183061
    11   1   -0.033328706249004039    0.042790870050740087      48.027870057602598
    12   1      1.8343522308926943      1.3808070565906561      49.453870653581085
    13   1    0.051165682095210101   -0.036991297046141236      50.928522330853021
    14   1      1.9974914587668975      1.4726656178354027      52.227748017928185
    15   1    0.067048761273443308  -0.0070924317660440968      53.804988296574457
    16   1      1.9905907449232001      1.4356585905664783      55.235436752296216
    17   1   0.0092651224909402734    0.001880481539293798      56.557816560885804
    18   1      1.9466111505192927      1.4483442430282567      58.052154425319586
    19   1   -0.027137468658159698   -0.048024836585396274      59.379773921358925
    20   1      1.9841227099055971      1.4551837865322077      60.865060438064475
    21   1   -0.076815573807673607    0.074587542914282642      62.345017153040907
    22   1   -0.088051331241893294      2.8739887357727225      33.636782739157724
    23   1      1.9472270087983807      4.1785239704128436      35.152015468358741
    24   1    0.037948827343693661      2.8464310389355494      36.586366065104762
    25   1      2.0060454351772989      4.2390024336357337      38.051570161540774
    26   1   0.0099833803022952132      2.7729254263524301      39.364988408995437
    27   1      2.0464364307203113      4.2392101435914435       40.89773766543022
    28   1   -0.053932401136331368      2.8676700679699598      42.291017412026768
    29   1      1.9865462366771778      4.2091100116744657      43.710861986396232
    30   1   -0.005799242286695025      2.7350113092235668      45.145837533736994
    31   1       1.891765296154853      4.1862767876345854      46.531437456935613
    32   1   -0.051067888923256012      2.8176103541636475      47.992705400050568
    33   1      1.9379143340200213       4.252590535730735      49.447706798628246
    34   1     0.09925057324373901      2.8095562948745236      50.935341648327608
    35   1      1.9615433869102266      4.3290983576768127      52.269278660004247
    36   1    0.028836119284915973      2.7989196224898909      53.674680802823801
    37   1      1.8809965565161781      4.2238544245624547      55.132505850582433
    38   1    0.072692181062968708      2.7749581712623979      56.591359715058452
    39   1      1.8827847362864696      4.2615735988913901      57.928500387835214
    40   1    0.058490343568213393      2.8589851531144737       59.42186085645298
    41   1      1.9169852381802484       4.245390946641046      60.938786514130364
    42   1   -0.022497548824389577       2.751925238410931      62.315965854975055
    43   1    0.031534115009101742      5.6653680849551158      33.653756431728333
    44   1      2.0009867124817617      7.0702228830730238      35.109831959999838
    45   1  -0.0065467185376530306      5.6687974902310962      36.586960303330187
    46   1      1.9816210059018879      7.0636370787053782      38.019352424827701
    47   1  -0.0052721089066871431      5.6653967416235211       39.28559591459333
    48   1      1.9711885080636851      7.1318809770976914      40.868516472800593
    49   1  -0.0016952383715419584      5.6922445539048274      42.298591706369429
    50   1      1.9636766452858911      7.1022667605257483       43.77604134942235
    51   1     0.04238208624587364      5.6501062145296315      45.163455513676084
    52   1       2.021414203992173      7.0944787401531579      46.575813790688422
    53   1    0.032402142226855869      5.6641056890879131      48.050555445906433
    54   1      1.9930463836198298      7.0338717136452633      49.507927308143103
    55   1  -0.0021675132362735062      5.6700589865813944      50.803955915332146
    56   1      1.9554787772551052      7.1191141947813463      52.282966923214111
    57   1   -0.023290294490951546      5.7459744511809108      53.756638568667157
    58   1      1.9331089528992904      7.1330842296533223      55.118002333355115
    59   1   0.0031501546985504949      5.7234211703230891      56.627094240909173
    60   1      1.9857012272719858      7.1003804675799644      57.958805255653097
    61   1    0.048800140195503376      5.6702485825650246      59.540682397117664
    62   1      1.9581108980753998      7.0631372190985857      60.897266927127497
    63   1   -0.064412635207476171      5.7551843187154388      62.284886646455895
    64   1    0.015213373438778084      8.4805519740469038      33.673759174119908
    65   1      1.9119827691303499      9.9895738400169485      35.074177814094107
    66   1   -0.020559603817181003      8.5226378745427276      36.594727680698284
    67   1      2.0182886776032363       9.983012050809366      37.937868225372256
    68   1  -0.0042934762415139547      8.5428868862047995      39.416396481503568
    69   1      2.0351888891611476      9.9275046472295152      40.807151538101856
    70   1   0.0013482611051819702      8.5016615840407113      42.269363873956934
    71   1      1.9382435013880983      9.9688577275646004      43.678566673064751
    72   1   -0.077107843348862656      8.5178415080051479      45.164782915721155
    73   1      1.9892765558794865      9.9837219319822452         46.596693171481
    74   1    0.051794368567353033      8.5510637595958148      47.946832393807242
    75   1      1.9223813877811116      10.027020377462074      49.406801509928215
    76   1   -0.055883543099302747      8.5140015063975536      50.882586671391628
    77   1      1.9492724569545608      9.9591892837363947      52.287876493912833
    78   1    0.070100105404115765      8.5035113305865018      53.733449752354872
    79   1      1.9376959241854419       9.913884613782237      55.140035138294024
    80   1   -0.050368220616648841      8.4829424262165034      56.627471741831393
    81   1      1.9004321586230191      9.9609551666123668      58.034649379343946
    82   1    -0.01124862210615566      8.5278473989712271      59.420947301907397
    83   1       1.922645093631393      10.005210712548534      60.864067538771835
    84   1    0.010394200388918537      8.4922661372343828      62.336052653860783
    85   1    0.039431152138815831      11.406580654618821      33.645546626158385
    86   1      1.9715129672817382      12.789137887094707      35.188504431221929
    87   1     0.03594773447494156      11.291405950385267      36.516511252937796
    88   1      1.8783240109513089      12.715368967106317      38.015822996293068
    89   1   -0.041805923527842445      11.396613096304222      39.306520131133283
    90   1        2.00100674220305      12.844308016741424      40.795764851021083
    91   1  -0.0095026355006998034      11.274066613699642      42.258977446685364
    92   1      1.8926407054269287      12.706182180843605      43.711973460632571
    93   1   -0.030131870148274745      11.338771341584772      45.096489111810378
    94   1      1.8579069721802073      12.671447307566323       46.53848137669997
    95   1    0.012114267517723145      11.307483367602851      47.998338009367252
    96   1      1.9687135346226414      12.712042865108288      49.477893836972527
    97   1  -0.0006328684754268939      11.326534452568026      50.880247275749319
    98   1      1.9534924385396797      12.772501292628876      52.323822572774567
    99   1   -0.035547272011694775      11.365608298480772      53.663852813776622
   100   1      2.0371355294037228      12.778612741463617      55.153176705599812
   101   1   -0.034696865800606012      11.285381607873504      56.625500988398443
   102   1      1.9823270950088678      12.819112759428979      57.954205569370181
   103   1   -0.056054817626172884      11.244815759037717      59.441084791230004
   104   1       1.959789406582604      12.789033403107229      60.897416674621205
   105   1   -0.017910862593164333      11.336209693203868      62.379636439494881
   106   1   -0.010062076300344797      14.185018057563303      33.776311789780344
   107   1      1.9850781047478505      15.654227901979707      35.116542102398874
   108   1     0.05962859264870668      14.120512499091548      36.633391920476789
   109   1      1.9732148469914212      15.618162005274881      37.956417319526878
   110   1    0.030384303289242784      14.207331499621219      39.448170351086432
   111   1      1.9982162951159075      15.604881065042726      40.783787940462098
   112   1   -0.012775220479188713      14.171456457605233      42.196389741462852
   113   1       1.876653744257059      15.695245145603577      43.725115947943678
   114   1    -0.03166924141298285      14.099849519061499      45.163653002995879
   115   1      2.0554182788416959      15.643533891188518      46.588765157607909
   116   1   -0.070968823952889032      14.220317993781157      48.003721479358759
   117   1      1.8847510808244046      15.601410241533396       49.33931958379236
   118   1  0.00053645994012475851      14.156606805174777      50.839569061531691
   119   1      1.9514577086282796      15.623659498270216      52.352673764185155
   120   1   -0.039616756240879861      14.175204290591362       53.69440911741092
   121   1      1.8677009994760576      15.628138734431388      55.192297921429699
   122   1    0.036362600090719191      14.168806116753052      56.609338928734566
   123   1      1.9813938537094951      15.635019675677498      57.934214604783719
   124   1   -0.047459498194895575      14.189641391357906      59.421429270434551
   125   1      1.9841297621352372      15.474035762762794      60.770992251051716
   126   1    0.047724271399246308      14.237228006784877      62.268546287320909
   127   1   -0.024445387992198031      16.988112549702727      33.715444251729352
   128   1      2.0016764974823777      18.479382564961863      35.086509429376655
   129   1   -0.016532465667675487      17.010944997122575      36.557631470236338
   130   1        1.97053570248545       18.41064535823983       38.06477237205619
   131   1    0.022741100746975593      17.049088895079457      39.404383570851138
   132   1      2.0148616140904747      18.435185411897635      40.878248609871939
   133   1    -0.03103376568476552      17.034001160979862      42.202646352766571
   134   1      2.0434688562784289       18.54893913480846      43.791839527255185
   135   1    0.086012792805321231      16.959781147576503       45.20112989915043
   136   1      1.9673948715938911      18.446065003255232      46.542318533215472
   137   1    0.075723520255331161       16.90021543259185      47.929578022112722
   138   1      1.8980214578472128      18.475971987375829      49.459445735216526
   139   1    0.032260719331390665      17.015328582524443      50.855781587757491
   140   1      2.0100591017673812      18.520360667047818      52.355919885552616
   141   1   -0.010911383401299341      17.107846018576943      53.833446815706409
   142   1      1.9537213343217319      18.455682725745309      55.160565946907141
   143   1    0.044373808534416803      17.087820757333525      56.561651112017103
   144   1       1.944917000386267       18.46695544938353      58.049131811916538
   145   1   -0.033111236239544338      16.994610243291401       59.46951500098897
   146   1      1.9747566173366309      18.421478987275201      60.919398593189193
   147   1   -0.041123498105543388      17.086236987038806        62.2934192750511
   148   1    -0.13531128483883201      19.902058188039646       33.66980683100693
   149   1       2.006193883411012       21.30552365929886      35.108811339669217
   150   1    0.033410201534363825      19.870355527118193      36.493939127564218
   151   1      1.9786622792011574      21.341023252207002      38.017890206489945
   152   1   -0.046658278652992144      19.878146582633921       39.42879188987844
   153   1      1.9406981854480976      21.266660443800944      40.876071773026744
   154   1    0.058673648335694412      19.816659350569449      42.282345656235449
   155   1      1.9643259733783629      21.312675282525273       43.64210793654923
   156   1     0.11697300220180806      19.843870944747152      45.136773122109119
   157   1      2.0618720276759355      21.201797426502878      46.534858251298473
   158   1   -0.066898806560699603       19.88071713168377      48.031457098783356
   159   1      1.9552787702696526      21.257178004082384      49.471927786714389
   160   1   -0.058589365831938904      19.898449138116341      50.817347916796209
   161   1      2.0240230123800047      21.316104190624884      52.375489274641559
   162   1     0.03502614219808102      19.879391519299901      53.764424698274276
   163   1      1.9441862168812787      21.283786188091714      55.186054272179945
   164   1    0.014310471064318347      19.852413983718243      56.627513261267204
   165   1      1.9563345799334368      21.282246502483812      58.051642926976882
   166   1   -0.081114016286041507      19.880517148495301      59.397098326514026
   167   1      1.9555325099748968        21.2822676530687       60.79609603986227
   168   1   -0.014182030034438473      19.840888933135606      62.356914659309552
   169   1  -0.0086435683256750623      22.742903249842648      33.784479997016511
   170   1      1.9710035290863497       24.05712833873276      35.098602089701615
   171   1    0.065211345639379678      22.717011787534286      36.479586526091289
   172   1      1.9433643977435535      24.085874398864611      38.011572888244622
   173   1    0.023417067108997019      22.734602412718889      39.357273756341613
   174   1       2.009821606547181      24.114814916239304      40.929588105533448
   175   1   -0.041590261832501127      22.701189019363511       42.25256953534192
   176   1      2.0402088942772023      24.107788493722779      43.734869364527164
   177   1   -0.018171290010911688      22.722865580092328      45.128513889554974
   178   1      1.9192957026024748      24.136677351299554      46.655433698543071
   179   1   -0.080042067915697943      22.647036513061995      47.925954530611513
   180   1      1.9258448263390942      24.137838659753037      49.462573265420929
   181   1     0.10673634851551045      22.736651383386647      50.850443444906517
   182   1      2.0038006152320289      24.078160267075987       52.38117510958876
   183   1     0.01634474843308454      22.644380448664478      53.712054631782777
   184   1      1.9904817145109528      24.110081114518593      55.201513139316994
   185   1   -0.018046949314625856      22.744888740874515      56.591423489206733
   186   1      1.9297674414107493      24.120077554449427       58.04786043759902
   187   1    0.052802651102815901      22.611994349152702      59.398898453908721
   188   1      1.9538103537506251      24.215098469008595      60.907694331000059
   189   1   -0.010388953246162206      22.752550349684412      62.289199339024158
   190   1   -0.048647479573378234      25.526902863559869       33.63155621927104
   191   1      2.0654363623232692      26.989358510517505      35.130716994146098
   192   1   0.0068036641944013406      25.473354115213656      36.554969436504457
   193   1       1.984564667267166      26.892922479124014       37.90517312769915
   194   1    0.012688062490140931      25.591689053206579      39.357764836521753
   195   1      2.0280947403996161      26.904226540284807      40.944300215055669
   196   1   0.0060284743239014532       25.60372097628586      42.240945654121838
   197   1      2.0334403689013065      27.013484484564472      43.744958070187195
   198   1     0.02430923101935872       25.57323601352552      45.208692951020808
   199   1      2.0150722645903154      26.940890984613755      46.513981099517814
   200   1     0.01520383442684423      25.559321925916791      48.085042360152244
   201   1      1.9646503040121077      26.896371072226113      49.402497316421901
   202   1   -0.014234368772710795      25.595150069196158      50.880620161883662
   203   1      2.0329724630152817       26.87456700202485      52.324496661861609
   204   1    -0.04658663997210892      25.471551488302183      53.776249956707431
   205   1      2.0021488377730887      27.041436659864075      55.137768336850421
   206   1   -0.056322753523880269      25.503993186541972      56.577557170910865
   207   1      1.8828024481899077      27.078618050317203      58.062218188223618
   208   1   -0.033904792215664371      25.464903096176748      59.494301202491968
   209   1      2.0539784265637624      26.980766797807675      60.839382594445219
   210   1     0.10330105446254854      25.539069553073396      62.359640562367233
   211   1     0.02530995215359649      28.376134415035743      33.710891557563365
   212   1      1.9503163325261366       29.75951239313828      35.054246357410122
   213   1  -0.0041862158222507181      28.434926943732279       36.46247275673462
   214   1      1.9913035572816264      29.747570172975859       37.97997796143995
   215   1   -0.045432606038317613      28.485352108765735      39.425440029802587
   216   1      2.0541462256598999      29.840627882630752        40.8535762654667
   217   1    0.035453687143162077       28.34015556587778      42.201644706416076
   218   1      2.0137278498927675      29.748890103630178      43.631730162985257
   219   1    0.082511741736568348      28.506721363091032      45.227373834696536
   220   1       2.041871296790327      29.855310200969974      46.461107681446371
   221   1   -0.014257535212721748      28.287569925408981      47.967141045189791
   222   1      2.0085798171040463      29.760026865583452      49.408100573354133
   223   1  -0.0075279592234049203      28.341027638193307      50.874379367663948
   224   1      1.9388422612905687      29.811145947546709      52.317931881935152
   225   1    -0.08146698536926017      28.427004694320175      53.757312622411362
   226   1      1.9168133701122958      29.853546126217665      55.142521226373319
   227   1    0.012522904333516589       28.38313809536459      56.666942697443339
   228   1      2.0005109176270013      29.836050890753757      58.019745660339389
   229   1    0.054753572784868081      28.459521465341883      59.545810427894757
   230   1       1.965950381333218      29.817776765585347      60.848996072822011
   231   1   -0.057711457978648462      28.381477704227258      62.353379503074727
   232   1      3.9555995137610016   -0.010247603419663113      33.710763400572276
   233   1      5.9200012481018387      1.3588268044987664      35.114935685081583
   234   1      3.9179445753579301   -0.018274834734473673      36.527062502531578
   235   1      5.9632215736737564      1.4603633719404123      37.859537108825869
   236   1      3.8277560404381505    -0.13117150549180764      39.449963258532357
   237   1      5.9292044195590501      1.3646132111598495      40.888379584909643
   238   1      3.8622546393679964     0.07378987261831095       42.15144638686381
   239   1      5.8874408116848604      1.3906983731272842      43.660267296342369
   240   1      3.8895687181173453    0.074411976709642461      45.155331314840211
   241   1      5.9065692129575318      1.3015208751289391      46.503989317924564
   242   1      3.8335970105738237 -0.00092095198828409056      47.946612902565654
   243   1      5.8993405268116046      1.4069009906326029      49.455086713334964
   244   1      3.8357970545826805   -0.088686952669170149      50.931508070204508
   245   1      5.8900924150967944      1.4821879144990782      52.248889992326447
   246   1      3.9621044320819423     0.03582213471825945      53.786909204334044
   247   1       5.956076095371821      1.3918591202849382       55.17863339163614
   248   1      4.0219284117743976     0.05032420368912556      56.529455816032652
   249   1      5.9187568145706173      1.4056175601764451       58.04905144293577
   250   1      4.0132558923824808   -0.067001608063366122      59.388782533439851
   251   1      5.8581128130411937      1.4490524598808918      60.839965445037386
   252   1      3.8660571692102317   -0.037264685638533017      62.268137860556102
   253   1      3.9107819210869113      2.8149932452009452      33.770477007370673
   254   1      5.8830887630419975      4.1523839253474364       35.06438508455507
   255   1      4.0072255214400281      2.8755372818813534      36.503056806696456
   256   1      6.0224682888253742      4.1817179388825823      37.986175763181045
   257   1       3.934568227997012      2.7583102847333292      39.374676613993024
   258   1      5.9091409460425615       4.202383545674949      40.815712411877392
   259   1      3.9552682451857204      2.8291012453836819      42.262654909654849
   260   1      5.9180032392546114      4.2613866590786627       43.67693345842617
   261   1      4.0102189746190655       2.829755495438639      45.149530329957585
   262   1      5.8683342259215783       4.279870715944579      46.553492061573245
   263   1      3.9282349330559367      2.8191272736936326      47.997305579029295
   264   1      5.9531228973086492      4.2937329819945917       49.41866993470277
   265   1      3.8868696169976662      2.8116276439852923       50.84343607547477
   266   1       5.963903308986831       4.236563628005011      52.332130339046621
   267   1      3.9693410878581101       2.841502108446988      53.800592255156744
   268   1      6.0173688223399644      4.3040321129723402      55.201958217865879
   269   1      3.9602657501617911      2.8562313401912474      56.662947965976187
   270   1      5.8203795288339757      4.1856308402294404      58.000334135556251
   271   1       3.983982103632608      2.9326022094428996      59.512587808461163
   272   1       5.907907022512541      4.3020559199989972      60.937861714266127
   273   1      3.9610574251334074      2.9007228530071947      62.365026279032904
   274   1      3.8765351513264301      5.7023364835310861      33.713790208792481
   275   1      5.9269166905852062      7.1036817289837053      35.101866920273928
   276   1      3.9265742383075932      5.6840966730218838      36.436974443874689
   277   1      5.9555030383560279      7.1415166162066752      37.918210810064259
   278   1      3.8530956780447112      5.6073516721033982      39.421018857626144
   279   1      5.9421698639799221      7.1994045741196704      40.852167080694365
   280   1      3.9639419295277611      5.6854847310352765       42.28700701556977
   281   1      5.8890151015891146      7.1475886773609618      43.682853241171202
   282   1      3.9355467898947873      5.7241058170376418      45.107199041120488
   283   1      5.9089589077637834      7.1598924549414944      46.738486149316984
   284   1      3.9234552916873628      5.5928759528630962      48.023193338638556
   285   1      5.9440329692244251      7.0636325639197182      49.388437385511182
   286   1      3.8523409456056563      5.6942118697928974      50.871630703120772
   287   1      5.9536093297281232      7.0894113261654859      52.196289583002368
   288   1       3.932717808272606      5.6799947752816378      53.701086547225387
   289   1      5.8806292278628511      7.1385245372972488      55.180667198203913
   290   1      3.9287633947130471      5.6851581731131509      56.475040587272652
   291   1       5.919784139246155      7.1467256563019967      58.029613031186258
   292   1      3.9428401251675105      5.6628444705080909      59.469107777729093
   293   1      5.8353077667760944      7.1538755932196825      60.780304304753081
   294   1      3.8855509697276873      5.5728130475198139      62.336420812698151
   295   1      3.9458526714194897      8.5012198904963689      33.662422438098417
   296   1      5.9389536087905341      10.057810909472279      35.186181989156701
   297   1      3.9299649933207053      8.4568647434881097      36.576354232806267
   298   1      5.9425311442192612      10.005552869237992      37.996076239139974
   299   1      3.8750229939813754       8.505627353619337      39.391718503559623
   300   1        5.84841162263164      9.8586385195352282      40.875264883047826
   301   1      3.9213017875233351      8.5186590961086353      42.233297156782122
   302   1      5.8273406793176123      9.8821743071512298      43.693700567595627
   303   1      3.8808672101453223      8.5867039925936943      45.109226561171859
   304   1       5.927161639873181      9.9225497462366867      46.648155197297022
   305   1      3.9405433533078904      8.5415768689686722      48.019089694967377
   306   1      5.9262567731962772      9.8256573396438203      49.414322377932535
   307   1      3.9395432356590141      8.4847687883894682      50.880317803864202
   308   1      5.8446889821586661      9.9907564108236908      52.310620068224367
   309   1      3.9424166831532013      8.5870230374929939      53.729302967275729
   310   1      5.9708197963031235       9.896481390508324      55.114341477207297
   311   1       3.814100095003448      8.4814555063232433      56.627511134796002
   312   1      5.8380957577072268      9.8549017164988832      57.965507839101491
   313   1      3.9515988507936202      8.4402033310414346      59.420746898474775
   314   1      5.8718125241068302      9.9987961409102404      60.792197623920899
   315   1      3.8906016029366288      8.5375360393328137      62.322578846363513
   316   1      3.9307819170852101      11.294949981991723      33.762639179723493
   317   1      5.9712579882492056      12.771531944630627      35.068868031404733
   318   1      3.8848223579553913      11.369840425003252      36.516404872289641
   319   1      5.9271064966321836      12.806685835143035      38.023161856885935
   320   1      3.9567746258927299      11.339535887736497      39.444829856823596
   321   1      5.9871367137793472       12.71079431588999      40.866058922017459
   322   1      3.9739380993457751      11.380932293376587       42.19177231791965
   323   1      5.8507018067432153      12.737981199863853      43.696917119918915
   324   1      4.0494037716014839      11.349356265925842      45.149558213747071
   325   1       5.923848441728695      12.853741380071659      46.490294943478133
   326   1      3.9847433104924979      11.404447831436242      48.043384996081336
   327   1      5.9327528746574112      12.786137196650857      49.384776144684601
   328   1      3.9024343985720065      11.363908143886787      50.871060059472043
   329   1      5.9005613493123459      12.654496215330036      52.274732470605528
   330   1      3.9772046768527223      11.362432832895887      53.766259451827203
   331   1      5.8872624205328288      12.673901669524902      55.195395842362856
   332   1      3.9100796567385583      11.345732127816492      56.570291816159838
   333   1      5.9162552325210092      12.795411365273525       57.98808385153874
   334   1      3.9020604766344085      11.383428515707992      59.481493235898114
   335   1      5.8882468189832675      12.807735005003448      60.917029527801411
   336   1      3.8971457087357102      11.376019624421875      62.316541608778465
   337   1       3.968125135367123      14.214398240482673      33.720025208133876
   338   1      5.8954637163795223      15.567412537750347      35.134072018851178
   339   1      3.9592294572074116      14.216355771325691      36.526626411224875
   340   1      5.8884406927048403       15.63228231446068      38.123573956812798
   341   1      3.9414024448576721      14.152766638806916      39.414102471101927
   342   1      5.8738440591700476      15.628036254812995      40.885727898471167
   343   1      3.9480184819512427      14.222749751142265      42.334234012108652
   344   1       5.935425386208955      15.598029446299195      43.657713330603187
   345   1      4.0159682351144985      14.218184243652136      45.167028249137978
   346   1      5.9861523944142432      15.604644221916118      46.592132498105656
   347   1      3.9198718143386726      14.133510542002059      48.001765546042641
   348   1      5.8087266976201812      15.624080399021176       49.34469250911247
   349   1      3.9270845576942182      14.158716502324708      50.859348197777976
   350   1      5.9713988181948698      15.608586981310031       52.38241884438311
   351   1      3.9315309524280937      14.191739658622229      53.695666453024373
   352   1      6.0169939051339689      15.589680507753483      55.205866326073142
   353   1      3.9101751464189793      14.257387638438274      56.545334012503481
   354   1      5.8558108171404459      15.507968667624787      57.961856161552582
   355   1      3.9064290653189677      14.143977021591002      59.398725310382922
   356   1      5.9347106833207182      15.596528984324255      60.873850993229233
   357   1       3.873964545695689      14.185543398519597      62.266179645902305
   358   1      3.9672652700792348      16.995889578741512      33.670165153496491
   359   1      5.9025280684055339      18.470762392149663      35.063947805934191