(written by ASE)

4263 atoms
2 atom types

0.0      31.066736431430968  xlo xhi
0.0      31.066736431430968  ylo yhi
0.0      63.730000000000004  zlo zhi

Atoms # atomic

     1   1   -0.010725529091007401   0.0043264086305202527      33.413620961186695
     2   1      1.3940597837959179      1.3820423648646538      35.429515635720179
     3   1    -0.06705656002346326   -0.064108077957091614      37.363681119759967
     4   1       1.503992913384737      1.4342721799718632      39.528147474457121
     5   1    0.028660440278768268   0.0024720787304557314      41.500918872512642
     6   1      1.4935654079024083      1.3569779369671791       43.45524443135276
     7   1    0.061152371361919582    0.013692906239312073      45.490957305821112
     8   1      1.4028453248583788      1.4811991245119016       47.53051017166581
     9   1   -0.054057457829038702  -0.0083724151738802325      49.605973925706124
    10   1      1.4505165318993183      1.4217518013601338      51.602964585503372
    11   1   -0.071321074289426772   -0.024069101578140167      53.602946888792509
    12   1      1.2725449771868462      1.4362739914827647      55.654605564509318
    13   1    -0.01596370692544568   -0.052228223989100535       57.69633588143131
    14   1      1.3557110198114235      1.3657401265950486      59.710755801200058
    15   1     0.10062843344506761    0.010107745005258821      61.773785097938493
    16   1   -0.017396208000384848      2.7635714905426352      33.454818909731884
    17   1      1.5048645251183581      4.1364978957023597      35.256158048863448
    18   1   -0.015421750233151496      2.8469642548440732      37.386263562178279
    19   1      1.3894712463375862      4.2141804671690659      39.473711409898804
    20   1    0.030868741251023419      2.9255235360769416      41.493058775323135
    21   1      1.3491775065569438      4.2045228764803877      43.456829386597867
    22   1   -0.054365550042943647      2.8147416686501057      45.477318875234644
    23   1      1.4398610154275719      4.2943849300134342      47.521446238472123
    24   1   -0.022738031074856366      2.8656013861880916      49.627257936737429
    25   1      1.4120699330259883      4.2493569109783387      51.541157294364822
    26   1    0.046833728418093912       2.809996584448323      53.683000659798672
    27   1      1.4994375784846028      4.2999021700276039      55.710262197742836
    28   1   0.0022762503634979887      2.8490004513802138       57.66302282720234
    29   1      1.4635576608021463      4.1962410093059255      59.759893431396726
    30   1 -0.00078737109987879429      2.8688530114839281      61.686888801436901
    31   1    0.076173996859963788      5.6335220345258756      33.421656440305426
    32   1       1.386077285585003      7.0812422899221117      35.443328186314027
    33   1   -0.036585373596981427      5.6644064113309112      37.434569100752228
    34   1      1.4201166697777572      7.0855881575976074      39.459967183297252
    35   1    0.049957500885847453      5.6153958066382987      41.481285935920418
    36   1      1.4564526576307086      7.0319805266195283      43.466533806532041
    37   1    0.010147699799839351      5.6945555047804524        45.5396714366777
    38   1      1.4440026434754536      7.0909007153995089      47.508053076214225
    39   1    0.030025129489705527      5.6288508619351934      49.570655894764812
    40   1      1.4370336667356631       7.104550329198263      51.605357986038456
    41   1    0.030593494036442393      5.6490757700586958      53.616864518397684
    42   1      1.3506096497044076      7.0335921819893183      55.662840197851494
    43   1    0.024171399078389652      5.6255658708444436      57.808528624208925
    44   1      1.4676427613400731       7.064579730095355      59.792263866030737
    45   1    0.047792511417133476       5.646382519334245      61.784329600066776
    46   1  -0.0014944518060356295       8.519543494439036      33.336249467837547
    47   1      1.4244946357998931      9.8578233304601035      35.430585049272729
    48   1   -0.096861901188203606      8.4559089445541478      37.419701930633217
    49   1      1.4244450230132657      9.8839792804258675      39.524182990609582
    50   1    -0.01563191923272365      8.4482698133473519      41.493383478361089
    51   1      1.4178770744066691      9.8789345227469898       43.43867339740288
    52   1     0.06978454388895379      8.5782664729033122      45.564926830988071
    53   1      1.4567047315182591      9.8568978980005362       47.61343518510067
    54   1     0.08209371126979359      8.4404578677607507      49.645873110609777
    55   1      1.3959184045507773      9.8619799574505489      51.566561237922357
    56   1    0.026028928343010571      8.4338807291648354      53.562314188415563
    57   1      1.4381472810500522      9.9224936530925856      55.603273455071928
    58   1    0.050864947689470023      8.4590143362855539      57.675202914165126
    59   1      1.4176756554706769      9.8887216583225577      59.652166455247468
    60   1   -0.018061748180933094      8.4426960664597033      61.645615955476501
    61   1    0.048848266462415565      11.303465892156824      33.374494952978566
    62   1      1.4773479772677991      12.579222003760874      35.480386787443244
    63   1   -0.067032770420435539      11.302003928862728      37.451181723908043
    64   1      1.4001481590156366      12.816004692271695      39.524511703968514
    65   1      0.0452767603088483      11.260762114723846       41.48798348181765
    66   1      1.3722225560847783       12.68377157035421      43.570704632199003
    67   1  -0.0038427788819791839      11.406834458667367      45.542558035648348
    68   1      1.4283069282106828      12.724654086416324      47.539350865423387
    69   1    0.034876451475914422      11.266609184639391      49.531146947885723
    70   1      1.3806045451675562      12.773512101021144      51.672744093493066
    71   1      0.0197892141113661      11.240953518036402      53.621249142604981
    72   1      1.4514189566461415      12.619981720424466      55.698253506477386
    73   1 -0.00046705496809017612       11.36096264942384      57.842363509313216
    74   1      1.4046371189983147      12.733138719938241      59.711393828532906
    75   1    0.057421405167013898      11.359511535896575      61.762635268194366
    76   1    0.013993944062544422      14.030958121679179      33.326505355522961
    77   1      1.3854121611259254       15.46621094792952      35.422219910630417
    78   1   -0.023823350396912538      14.118739078603173      37.422619605529007
    79   1      1.4627534607280654      15.456303278645546      39.491170732312817
    80   1    0.076780356375751355      14.134825369147572      41.525722588604978
    81   1      1.4913346810624479      15.547871215840875      43.504991744014248
    82   1   -0.041324480784343059      14.223045484202645      45.515691649231471
    83   1      1.4414711289108961      15.626423133947441      47.514664408714054
    84   1   -0.011162322047791289        14.1906314289898       49.57531866128592
    85   1      1.3729765887466459      15.578120290558058      51.524108804887796
    86   1  -0.0024159870672597217      14.047804921821685      53.591497479398235
    87   1      1.4643912346990136      15.467675178750174       55.67746798071061
    88   1   -0.066513885911670165       14.07447012990227      57.636758519004026
    89   1      1.4053390443802107      15.538998387426373      59.628646549357526
    90   1   -0.034344699583656345      14.140020073108438      61.698325938497376
    91   1 -0.00021914173181979753      16.914374758603021       33.40499281236783
    92   1      1.3312120935215923      18.385821709331619      35.358599322638725
    93   1   -0.037403364027096979      16.934965552117227      37.481969861636152
    94   1      1.3890286580339033      18.339878772031948       39.48143722702067
    95   1   -0.041493614804710692      16.952786594013137      41.449541169764245
    96   1      1.4952165810907523      18.249053627524933      43.524046861624235
    97   1    0.072887575490304141      16.964874689606251      45.521566916128528
    98   1      1.3643265768295487        18.3841892641165      47.608195057544947
    99   1   -0.034026836553849152      16.898004073594425      49.574980011306764
   100   1      1.3963164229230776       18.37607865768225      51.586971187793509
   101   1   -0.059358798817750413      17.021054348631207      53.614775216383833
   102   1      1.4303119279686456      18.328269604540438      55.654099705363429
   103   1   -0.068139817143751918      17.045593013955489      57.652782769733754
   104   1      1.3314596749383207      18.418729845859566      59.728566767676952
   105   1      0.0113471380423266      16.935420109424037      61.734641956599503
   106   1   -0.014138273706578598      19.667891530654664      33.413610370281006
   107   1      1.3547673141009373       21.12103576956271      35.419824430842858
   108   1   -0.041552222394021406      19.866328138553921      37.475839154531734
   109   1       1.435154617281174       21.15559276360014       39.40356696000164
   110   1    0.028132750344628032      19.842886145443547      41.476424656136921
   111   1      1.3238210680025511      21.185651940574601      43.522781422012834
   112   1   0.0092140291422439617       19.89225297351247      45.512831118258191
   113   1      1.5156565667053026      21.187827652548901      47.486422657276286
   114   1  -0.0067352350321295872      19.780048627057095      49.573572197779683
   115   1      1.3820206549252128      21.133845969671668      51.673452157363833
   116   1   -0.045624139631861148      19.742325200400682      53.614779623286708
   117   1      1.4282959853346002      21.138310919769491      55.691840683049442
   118   1    0.037207092011756537      19.791268477617002      57.666935365817068
   119   1      1.3941804498408885      21.182296947009728      59.749563111842697
   120   1    0.014720967063252913      19.654038033380374      61.748185007620101
   121   1   -0.088959335621686259      22.580628742356286      33.407093248235448
   122   1      1.4297618350579075      24.003379852349635      35.405458104634995
   123   1    0.018334180777548083      22.631661702562312      37.455944704361116
   124   1       1.396246278217351      23.991518144926388      39.431732515273168
   125   1   -0.004936758515844417      22.617424314582276      41.437534694812022
   126   1      1.3986030138478189      24.039149644266676      43.554142167162745
   127   1   -0.013921261609092126      22.555274507273911      45.543570149756228
   128   1      1.4294501805855744      23.907906638246693      47.581561968243726
   129   1   -0.059320560709551468      22.665714021521175      49.612533033066775
   130   1      1.3938143078407255      23.987886271979587      51.592041908906111
   131   1    0.012456518246681909      22.566413800525023      53.544017968781546
   132   1      1.3620472479440604      24.030173670654833      55.696937296762783
   133   1    0.064563445338319592      22.667076978897899      57.700731679226614
   134   1      1.4047586621068804      24.023776948588562      59.640078108304351
   135   1   -0.017272730393120425      22.615802491983349      61.649429053622178
   136   1   -0.037006311581180819      25.365807917104178      33.322044792452061
   137   1      1.3647917864089485      26.838809852415757      35.346123274866606
   138   1    0.010672505930212565      25.325999790801806      37.435750869346315
   139   1      1.4994876136146664      26.815793115090923      39.425129576453408
   140   1    0.061556349145563821      25.473231785592063      41.528073429475732
   141   1      1.4116468568736267      26.864227008762985      43.509531881684808
   142   1    -0.01594970904295127      25.438200734269714      45.502217287880143
   143   1      1.4084883669394892      26.824327360060519      47.502002141490635
   144   1    0.055613396215436608      25.478353893736163      49.545650550846858
   145   1      1.5241830493347468      26.847943921070719      51.578752993222658
   146   1   -0.029852586001387911      25.380702659072529      53.671672004881628
   147   1      1.4286934195986483      26.874815225421273      55.630095911288571
   148   1    0.058714432289949284      25.457069194797977      57.651099099770875
   149   1      1.3659903461890845        26.8432698688299      59.659049091949797
   150   1    0.036785013086850914      25.453488838005772      61.747481909961721
   151   1   0.0042522684456752563      28.222546642574496      33.387050356259998
   152   1      1.3968766716871945      29.673079818097779      35.333117521727168
   153   1    0.031621438234204872      28.300790015773796      37.392211122782435
   154   1       1.461245348889179      29.682347321895222      39.446897338788702
   155   1    0.047086600629605666      28.223983263981658      41.410010798390495
   156   1      1.4425795421817129      29.604671293066204      43.527929547606703
   157   1     0.18995894845094671      28.243909294316026      45.548236085754937
   158   1      1.4503710392234879      29.617481480453055       47.49139530627081
   159   1    0.028051314998606705      28.194355636844964      49.534543181934637
   160   1      1.3571153306712544      29.574076219866061      51.609508779291673
   161   1     0.08851135095111369      28.286825400465883      53.599446798118194
   162   1      1.4130598465420041      29.647976201589827      55.622782318147891
   163   1   -0.084003236531396186      28.316996553893635      57.662910090961326
   164   1      1.3739564198747316      29.664033412032691      59.779754223820504
   165   1    0.022823883118319337       28.27885955108124      61.646770486429105
   166   1      2.8053623454285228    0.054444638180443462      33.423808853111019
   167   1      4.2529207991054152      1.4607285050841377      35.386064662868485
   168   1      2.8073464035425384   -0.086176138783977674      37.371661344869374
   169   1      4.1997732416721192      1.4119698560610994      39.383532795826504
   170   1      2.7486141658456131   0.0030737040564961173      41.387843142516914
   171   1      4.2507515991515792      1.4815764976737915      43.492831391826684
   172   1      2.8109908710997349    0.057257133680507902      45.547598683314121
   173   1      4.2225091469018281      1.4458698523450699      47.550211073558685
   174   1      2.8642262383234458   -0.067010285110202475      49.646664044147684
   175   1      4.2072787086041679      1.3710877769121566      51.620902466954433
   176   1      2.8115877304240851  -0.0040115998342781251      53.525346895563686
   177   1      4.2598713943916788      1.3661162749690792      55.757068570091853
   178   1       2.814629854502988    0.027846934229194056      57.751755817127453
   179   1      4.1897531677975524      1.4382593474949226      59.718796099844404
   180   1      2.7691232002784498   0.0081069509505872373      61.660931763518569
   181   1      2.8898417559451222       2.834691785744929       33.40981072709517
   182   1      4.3510815116754955       4.154799223943721      35.450355784978441
   183   1      2.7860483586285993       2.778013871572226      37.450709778715122
   184   1      4.1649372414066654      4.2682922869774735      39.488140095926482
   185   1      2.7897874973604799      2.8408626943382775      41.468845820044287
   186   1      4.2595915364368251      4.3889080008355998      43.497337890861871
   187   1      2.8411522125463922      2.8656858717281262      45.391930355414161
   188   1      4.2592739936347037      4.1743478023742933      47.585643685888378
   189   1      2.8027452708087099      2.8678107822922305      49.573665380551027
   190   1      4.2478774325751223      4.2630813566329584      51.553729427776972
   191   1      2.8722316102101577      2.8045798483725997      53.622282049361445
   192   1       4.236162116628261      4.2777499487553614      55.706259662383523
   193   1      2.8851035731290429      2.8618356896345856      57.766966436817263
   194   1      4.1849248172430604      4.2133700655132706      59.665907809896353
   195   1      2.9073350605146522      2.8051227285783145      61.778267973145013
   196   1      2.8060728991076953      5.6749621158162959       33.34411847110033
   197   1      4.2274948330270252      7.0663444407693525      35.430680326632483
   198   1      2.8413439314663282      5.6129006836972062      37.445921137924451
   199   1      4.1887133785456241      7.1376972335507602      39.454351672191557
   200   1      2.9131323986979871      5.6535672807745811      41.467030918164284
   201   1       4.244463997380854       7.075217265446204      43.562781819327199
   202   1      2.8330221840052339      5.6454300538459314      45.511966419439219
   203   1      4.2355538224354303      7.0936663543897707      47.461784186310787
   204   1      2.7449872517758944      5.6669700871784521      49.511701364495096
   205   1      4.2508012726817617      7.1079039414884182      51.552975456192328
   206   1      2.7789773402393165      5.6855401529664436      53.649999918179951
   207   1      4.3013614201025474      6.9750222391858951      55.664527967622874
   208   1      2.8047851204059331      5.5990590438017671      57.747788009828568
   209   1      4.1940923450391789      7.0954875216671143      59.700944051077919
   210   1      2.8269279467973263      5.6846529205015646      61.679285959552267
   211   1       2.827165915256074      8.5333174510764582      33.381113047863494
   212   1        4.15234931344534      9.8039559203303615      35.416609908936373
   213   1      2.7904848127656483      8.4744609129724395      37.410795231222963
   214   1      4.2580399175376469      9.8950620315554154      39.398483854721761
   215   1      2.7616844164437286      8.4119827883399498      41.394044237682131
   216   1      4.1653711599077452      10.019357335572238      43.534696789590399
   217   1      2.7893708971253988       8.444726369822563      45.521232499029679
   218   1      4.2630677132193053      9.9023710485613492      47.588861397643434
   219   1      2.7884867854706643      8.5644395833808957      49.550430621777771
   220   1      4.2041347713589543       9.861298256276088       51.76970956596201
   221   1      2.8903209479129717      8.3837304749188295      53.562881303850403
   222   1      4.2818254478284388      9.8409995178703706      55.746609073044866
   223   1       2.815929473763072      8.4929912103057674      57.645806100441106
   224   1      4.2664531734949955      9.8380026041984614      59.692464100830556
   225   1      2.8712054446588158      8.3571396996205802       61.74246845178849
   226   1      2.7866355318785323      11.343814746200628       33.42317150628989
   227   1      4.2679466278855465      12.761200016324393      35.439048675709671
   228   1      2.8495253363920732       11.30126931353081      37.392037396464588
   229   1      4.2267752978721669       12.69926771931863       39.46134227521167
   230   1      2.7989357315636005      11.328678527252354       41.46793787328501
   231   1      4.1434120120964639      12.779529213434845      43.461033139139744
   232   1      2.8587784204899087      11.297322895678638      45.623282651495416
   233   1      4.2346432627788531      12.703680622549086      47.519313202253997
   234   1      2.8101453084668102      11.255738290277279      49.508242322259534
   235   1      4.2212134361816585      12.708963368670359      51.629610488768272
   236   1      2.8016188055667719      11.391895699440722      53.602146990126798
   237   1      4.2761539340524486      12.698985967982717      55.579745688491911
   238   1      2.7910236516385623      11.380502021263647      57.661708214185516
   239   1      4.2438479236250792      12.679181606712937       59.77806602319059
   240   1      2.7294619906897091      11.269734511860316      61.770213068936521
   241   1      2.7860934636959911      14.038195143158033      33.348737096974027
   242   1      4.2380343597137085      15.563748248039733      35.407649697234987
   243   1      2.7991755459321288      14.103888283055133      37.479266900637455
   244   1      4.2399910948593016      15.506239898064333      39.510690010889405
   245   1       2.812850144313527      14.131752205571603      41.471998446767543
   246   1      4.2100818165937897      15.563535694116156       43.52531950460024
   247   1      2.7568347206557351      14.156678154700653      45.487389479406964
   248   1       4.238552449758072       15.52233715122507      47.516629522599793
   249   1      2.7622992135317119      14.099051792815459      49.515165063778838
   250   1      4.2093756639543454      15.486411005260269      51.658518259693551
   251   1      2.7642176766603046      14.126789126666262      53.636995246830686
   252   1      4.2065322473949571      15.598209673468871      55.635025272579078
   253   1      2.8208475271065665      14.166222077987802      57.731387596652418
   254   1       4.323633268854703      15.469586023011438      59.715016603224377
   255   1      2.7768958473856657      14.167222828591573      61.692801767929701
   256   1      2.8080046700866701       16.90977853371546      33.419669961987374
   257   1      4.2067315804568706      18.331138707562523      35.265017420578353
   258   1      2.7934588581930249       16.89456650369485      37.428439327672962
   259   1      4.3030107701943203      18.319880285830575      39.469913368338617
   260   1      2.8742678773537618      16.958712422221854      41.442607323351808
   261   1      4.2292695026155966      18.331514813428051      43.495361080805615
   262   1      2.8332636207003747      16.993717772907488      45.445960474133734
   263   1      4.2246528256510523      18.376397641244615      47.549911207562914
   264   1      2.8407872832402741      16.945966884245337      49.638743028191442
   265   1      4.2436582587564082      18.370500855706304      51.593444228662072
   266   1      2.7304808215103589       16.95016682542305      53.661027564173352
   267   1      4.2222511794255499      18.354430051906917       55.64427926344743
   268   1      2.8424503503623053       16.91844993147301      57.669895491556083
   269   1       4.218370856445711      18.325981471600315      59.658333759554033
   270   1       2.819014026853548      16.963461046114713      61.671209397086436
   271   1       2.767532911546482      19.704412388625123       33.44155632649418
   272   1      4.2757672018967394      21.198747142264047      35.433285867254163
   273   1       2.825928142222792      19.780836042231734      37.445257297616145
   274   1      4.1682884320998159      21.145928061218108      39.467226111019215
   275   1      2.7966795394336357      19.759361631475599       41.46831497792116
   276   1      4.2236328387682214      21.226651442137204      43.491233705572867
   277   1      2.8216513806045995      19.698463338890161      45.506757714855539
   278   1      4.1700196345220322      21.170467873440622      47.561585031067331
   279   1        2.84591782767037       19.80715009092421      49.637592692689623
   280   1      4.2165939375503818       21.16752425406008      51.582580987562004
   281   1      2.8238378045371348      19.714141658838539      53.584478018360379
   282   1      4.2926951588059943      21.225548437618208      55.635216193194651
   283   1       2.856444177393068      19.728149474198275       57.71291582185485
   284   1      4.2401311959568693      21.252220456963716      59.803209289271422
   285   1      2.9527126375365045      19.802924653379502      61.591051340914433
   286   1      2.8910733417322345       22.67527064607048      33.386275614044834
   287   1      4.2520565351589559      24.003615654279006      35.415446141285763
   288   1      2.8503708112997552      22.679110140983397      37.369134726553717
   289   1      4.2297597514816578      24.007833976754586      39.525931867498379
   290   1      2.8773757508517495      22.588886350362031      41.483283963876026
   291   1      4.2210910780389348      24.033698675538897      43.481236967486275
   292   1      2.8139750909598611      22.590461244308873      45.508942611142153
   293   1      4.2799140008345438      24.068697293052992      47.600028032658905
   294   1      2.8913194554445876      22.678286763336438      49.504389058577353
   295   1        4.28923961561875      23.959793965811112      51.564886417184454
   296   1      2.9670988213136082      22.623712326637868      53.625889072059806
   297   1      4.1716359456301273      24.015671143320237      55.696831065707869
   298   1      2.7909532276834512      22.503698428503423      57.662362805556107
   299   1      4.2369893031296701      24.073517695133223      59.688128187004622
   300   1      2.8487053873828421      22.534785097244541      61.660664247320362
   301   1      2.7970798679009996      25.467255514919643       33.37031703153778
   302   1      4.2914772239946508      26.727184571844479      35.337870267186162
   303   1      2.8337392412683791      25.423403482873486       37.43004673444721
   304   1      4.2477130466249395      26.931969121132539      39.554228792917044
   305   1      2.8204730884006208      25.473323028631139      41.551124689331907
   306   1      4.1553829493977243      26.754369050807149      43.493676679439538
   307   1      2.7662651280669586       25.42372913190275      45.537475431492915
   308   1      4.2587991381948909      26.811212218670324      47.669595216492269
   309   1       2.910886886955379      25.411723488811287      49.553335010836726
   310   1      4.2629535479531961      26.783152500233101      51.631138098249274
   311   1      2.7682126756085133      25.426779184730485      53.708384850907223
   312   1      4.2587449622649789      26.909211871962434      55.643259457516081
   313   1      2.8590607440655291      25.417760282152702      57.644318104944496
   314   1       4.319428081597545      26.934947120443134       59.65059790471603
   315   1      2.7340108426522347      25.412320391275614      61.736629346534393
   316   1      2.7853061827087302      28.207939561127287      33.420855859829246
   317   1      4.2012638627031018      29.671735303043675      35.431289952997247
   318   1      2.8613856837603988      28.189224406266899       37.44858057067826
   319   1      4.2580081220826242      29.646146374064724      39.465073665168305
   320   1      2.9166654103493919      28.255876129941598      41.413231615492904
   321   1      4.1641733884589414      29.514062611278725       43.49817495513971
   322   1      2.7853430465593796      28.222123558774268       45.49291074976918
   323   1        4.21769628244241      29.584828841914351      47.551047170009348
   324   1      2.7963525997650875      28.250304187808531      49.580735528972895
   325   1      4.2272384092203454      29.593351612994507      51.581719136461452
   326   1      2.7763740213306831      28.233617658036522      53.568928542239391
   327   1      4.1509645435182208      29.691486504480906       55.63381038599281
   328   1      2.8139217845164612      28.281297104269644      57.671405349428234
   329   1      4.2095024035568818      29.663458762754164      59.736180240229899
   330   1      2.8137836029894192      28.219556800527865      61.736446767957695
   331   1      5.6197349774931915    0.017900933334120808      33.403382548555747
   332   1      7.0286234408501533      1.3964863212217205      35.416574084614545
   333   1      5.7547664726851755   -0.077338459995782038      37.418575075903341
   334   1      7.1139595533432072      1.4847547679578061      39.487943585139227
   335   1      5.6126486628110799   -0.099453620434993145      41.483628196308324
   336   1      7.0565361025596403      1.3884729633214568      43.443548084684735
   337   1      5.5962536778729381    0.025017830064535174      45.490688140010008
   338   1      7.0629185021753598      1.4398510904907424      47.493696182925291
   339   1      5.6097169161043485    0.072572107745204312      49.639450903585214
   340   1      7.0554517684816247      1.5479879486343799      51.606872332657865
   341   1      5.6906963562789779    0.096675631927342062      53.734787897970676
   342   1      7.0481875211461302      1.4064976066962169      55.655134861814581
   343   1      5.5968875624598118   -0.058400332671670677       57.66037199864342
   344   1      7.0110040537857001      1.3539129402629106      59.722802959193054
   345   1      5.6648677293400223    0.046284625546223306      61.715630884265622
   346   1      5.5912186234724421      2.8242665722900075      33.438054373657579
   347   1       7.000652841591724      4.2784338089766543      35.446528984920526
   348   1      5.5928902384088364      2.8768840365984665      37.375649037869557
   349   1      7.1566544388693556      4.3693540814133076      39.512034487877408
   350   1       5.666822626765188      2.8367515689760472      41.471077952886695
   351   1      7.0620831996832933      4.1534476118199581      43.462693833568395
   352   1      5.6476943420795935      2.8024504584269723      45.601497049807534
   353   1      7.0477265444768902      4.2708114063889182      47.528956546771226
   354   1      5.5994197919902433      2.7774823703382641      49.662527212641201
   355   1      7.0890962780347815      4.2023773605782768      51.611441499010745
   356   1      5.5126361020546044      2.8302928756165358      53.651108395077088
   357   1      7.1689726998656544      4.2185317242960814      55.680480835475528
   358   1      5.7426948515452478       2.783449438185178      57.647510514166051
   359   1      7.0427476758545762      4.1291282179419824       59.67721968857947