LAMMPS (10 Dec 2025)
OMP_NUM_THREADS environment is not set. Defaulting to 1 thread.
  using 1 OpenMP thread(s) per MPI task
units metal
boundary p p s
atom_style atomic
timestep 0.002
read_data data.interface
Reading data file ...
  orthogonal box = (0 0 0) to (31.066736 30.355302 63.738506)
  1 by 1 by 4 MPI processor grid
  reading atoms ...
  4236 atoms
  read_data CPU = 0.015 seconds

pair_style eam/alloy
pair_coeff * * /mnt/c/Users/iwash/Documents/Repositories/Lammps/potentials/AlCu.eam.alloy Al Cu
Reading eam/alloy potential file /mnt/c/Users/iwash/Documents/Repositories/Lammps/potentials/AlCu.eam.alloy with DATE: 2008-10-01

neighbor 2.0 bin
neigh_modify delay 10 check yes

thermo 100
thermo_style custom step temp pe press pxx pyy lx ly lz

print '=== Phase 0: Shake (High-T limit) ==='
=== Phase 0: Shake (High-T limit) ===
velocity all create 1000.0 8450 dist gaussian
fix shake all nve/limit 0.1
run 1000
Neighbor list info ...
  update: every = 1 steps, delay = 10 steps, check = yes
  max neighbors/atom: 2000, page size: 100000
  master list distance cutoff = 8.6825
  ghost atom cutoff = 8.6825
  binsize = 4.34125, bins = 8 7 14
  1 neighbor lists, perpetual/occasional/extra = 1 0 0
  (1) pair eam/alloy, perpetual
      attributes: half, newton on
      pair build: half/bin/atomonly/newton
      stencil: half/bin/3d
      bin: standard
Per MPI rank memory allocation (min/avg/max) = 3.496 | 3.74 | 3.983 Mbytes
   Step          Temp          PotEng         Press           Pxx            Pyy             Lx             Ly             Lz      
         0   1000          -14390.535      19975.076      16211.761      26338.139      31.066736      30.355302      60.044738    
       100   611.38031     -14177.712      30822.394      29501.1        39727.715      31.066736      30.355302      61.234219    
       200   596.56549     -14169.452      20726.922      23576.682      31398.84       31.066736      30.355302      61.809286    
       300   596.86947     -14169.413      13253.731      19764.018      25754.018      31.066736      30.355302      62.646516    
       400   576.87628     -14158.306      8170.4197      15840.509      21822.608      31.066736      30.355302      62.935025    
       500   565.1525      -14151.825      3319.9178      12124.46       16468.11       31.066736      30.355302      63.2731      
       600   546.04242     -14141.291      1684.5411      10832.802      14966.859      31.066736      30.355302      63.827057    
       700   560.49992     -14149.277      7286.59        15794.628      17957.35       31.066736      30.355302      63.785836    
       800   585.07808     -14162.839      11919.855      19578.939      21977.675      31.066736      30.355302      62.715268    
       900   593.23202     -14167.447      15052.368      21953.958      24254.473      31.066736      30.355302      62.681987    
      1000   597.83057     -14170.172      20488.486      26388.084      28394.157      31.066736      30.355302      61.943178    
Loop time of 2.72118 on 4 procs for 1000 steps with 4236 atoms

Performance: 63.502 ns/day, 0.378 hours/ns, 367.487 timesteps/s, 1.557 Matom-step/s
103.3% CPU use with 4 MPI tasks x 1 OpeOutput  | 0.00023377 | 0.00030831 | 0.00048022 |   0.0 |  0.01
Modify  | 0.0048781  | 0.0059156  | 0.0070608  |   1.2 |  0.22
Other   |            | 0.02625    |            |       |  0.96

Nlocal:           1059 ave        1303 max         804 min
Histogram: 1 0 1 0 0 0 0 0 1 1
Nghost:        3649.75 ave        4643 max        2374 min
Histogram: 1 0 0 0 1 0 0 1 0 1
Neighs:          99088 ave      142105 max       59245 min
Histogram: 2 0 0 0 0 0 0 0 1 1

Total # of neighbors = 396352
Ave neighs/atom = 93.567517
Neighbor list builds = 28
Dangerous builds = 0
=== Phase 1: 0K Relaxation ===
Switching to 'neigh_modify every 1 delay 0 check yes' setting during minimization
Setting up cg style minimization ...
  Unit style    : metal
  Current step  : 1000
WARNING: Energy due to 3 extra global DOFs will be included in minimizer energies
 (src/min.cpp:222)
Per MPI rank memory allocation (min/avg/max) = 4.624 | 4.86unfix shake
velocity all set 0 0 0

# x,y方向の箱寸法 + 原子位置を同時最適化（z方向はshrink-wrap）
print '=== Phase 1: 0K Relaxation ==='
=== Phase 1: 0K Relaxation ===
fix relax all box/relax x 0.0 y 0.0 vmax 0.001
minimize 1.0e-8 1.0e-10 10000 100000
Switching to 'neigh_modify every 1 delay 0 check yes' setting during minimization
WARNING: Energy due to 3 extra global DOFs will be included in minimizer energies
 (src/min.cpp:222)
Per MPI rank memory allocation (min/avg/max) = 4.624 | 4.866 | 5.11 Mbytes
   Step          Temp          PotEng         Press           Pxx            Pyy             Lx             Ly             Lz      
      1000   0             -14170.172      14503.994      20568.909      22447.145      31.066736      30.355302      61.945278    
      1100   0             -14223.785     -3252.9158      1134.6963      1194.5338      31.215807      30.562904      61.945278    
      1200   0             -14271.177     -4714.0939     -79.326108      800.03304      31.174228      30.497001      61.945278    
      1300   0             -14319.641     -5749.8055      147.76687     -34.171667      31.08641       30.462361      61.945278    
      1400   0             -14344.978     -7392.8286     -1446.4223     -1378.6407      31.073346      30.444934      61.945278    
      1450   0             -14355.215     -5998.9764      375.59251      560.39058      31.037844      30.409436      61.945278    
Loop time of 1.606 on 4 procs for 450 steps with 4236 atoms

104.2% CPU use with 4 MPI tasks x 1 OpenMP threads

Minimization stats:
  Stopping criPair    | 1.5463     | 1.5469     | 1.5475     |   0.0 | 96.32
Neigh   | 0          | 0          | 0          |   0.0 |  0.00
Comm    | 0.01787    | 0.017982   | 0.018102   |   0.1 |  1.12
Output  | 8.6054e-05 | 0.00010648 | 0.00016665 |   0.0 |  0.01
Modify  | 0          | 0          | 0          |   0.0 |  0.00
Other   |            | 0.04104    |            |       |  2.56

Nlocal:           1059 ave        1324 max         801 min
Histogram: 1 0 1 0 0 0 0 1 0 1
Nghost:         3656.5 ave        4650 max        2375 min
Histogram: 1 0 0 0 1 0 0 1 0 1
Neighs:        99163.5 ave      144497 max       59748 min
Histogram: 2 0 0 0 0 0 0 0 1 1

Total # of neighbors = 396654
Ave neighs/atom = 93.63881
Neighbor list builds = 0
Dangerous builds = 0
=== Phase 2: Annealing at 600.0K for 10.0ps ===
Setting up Verlet run ...
  Unit style    : metal
  Current step  : 0
  Time step     : 0.002
Per MPI rank memory allocation (min/avg/max) = 3.499 | 3.741 | 3.985 Mbytes
   Step          Temp          PotEng         Press           Pxx            Pyy             Lx             Ly             Lz      
         0   600           -14355.215      1.4283556      6543.9639      6336.0549      31.037844      30.409436      61.798888    
       100   460.68471     -14222.unfix relax

# 界面近傍の原子配置を緩和（ミスフィット軽減）
print '=== Phase 2: Annealing at 600.0K for 10.0ps ==='
=== Phase 2: Annealing at 600.0K for 10.0ps ===
reset_timestep 0
velocity all create 600.0 8450 dist gaussian
fix ann all npt temp 600.0 600.0 0.1 x 0.0 0.0 1.0 y 0.0 0.0 1.0
run 5000
Per MPI rank memory allocation (min/avg/max) = 3.499 | 3.741 | 3.985 Mbytes
   Step          Temp          PotEng         Press           Pxx            Pyy             Lx             Ly             Lz      
         0   600           -14355.215      1.4283556      6543.9639      6336.0549      31.037844      30.409436      61.798888    
       100   460.68471     -14222.491     -4473.5579     -4579.0212     -4035.1037      31.430605      30.779892      61.545946    
       200   539.45215     -14184.206      1812.0731      129.8603      -960.5419       31.487361      30.827228      61.526322    
       300   588.19613     -14139.529      4920.9068      1956.6798      2684.9642      31.591158      30.819981      61.543437    
       400   608.13933     -14111.602      648.53354     -2832.1889     -1569.1619      31.63485       30.938828      61.849562    
       500   611.43074     -14148.742      2371.4775      856.27796      658.08362      31.438816      30.98808       61.417627    
       600   593.01885     -14158.439     -587.84609     -742.29166     -894.81158      31.367342      31.002788      61.05272     
       700   603.90435     -14137.006     -1274.7247     -279.91058      770.49277      31.310411      30.971146      61.715381    
       800   610.06549     -14130.098     -971.94298      11.81429      -597.16366      31.28773       31.064511      62.205429    
       900   584.73988     -14136.566      1077.4197      450.54131      1214.5716      31.238365      31.084148      62.071317    
      1000   609.43614     -14135.833     -1213.8727      303.11074     -1957.3174      31.192414      31.172588      61.828659    
      1100   612.52011     -14127.586     -2291.9208      133.11402      464.34901      31.167461      31.056574      62.091481    
      1200   604.16037     -14141.143     -2307.8588      432.9966       475.63697      31.175886      31.031707      62.428992    
      1300   590.75911     -14139.284     -1570.7517     -636.98607     -589.5266       31.247334      31.103317      61.673591    
      1400   605.47714     -14142.182      1070.5985      1944.9011      318.66029      31.20684       31.101176      62.009696    
      1500   592.25657     -14139.03       950.51645     -1079.5017     -1150.2456      31.352596      31.098468      62.475855    
      1600   613.08955     -14133.521      2085.1025     -765.39222     -521.65932      31.460932      31.061109      61.858948    
      1700   603.04394     -14141.416      3773.6533      1042.7996      1053.8423      31.448274      31.036655      61.069577    
      1800   582.17473     -14146.975     -52.556542      119.16827     -93.551267      31.401028      30.969142      61.703556    
      1900   588.94671     -14132.822     -252.06469      772.61708      735.27426      31.413215      30.908878      61.856758    
      2000   608.40049     -14134.529      347.86325      481.90711      579.63239      31.425647      30.92634       62.159531    
      2100   583.4003      -14138.581     -243.04866     -745.14918     -603.65918      31.43902      2700   596.83503     -14142.268      1209.614       1439.9327      858.85906      31.333393      31.008526      61.788505    
      2800   604.48664     -14137.346      1976.007       836.93737     -1340.6421      31.340582      31.146154      61.576428    
      2900   605.63511     -14137.919      1046.0804     -3440.0489     -177.88844      31.459263      31.085858      61.584131    
      3000   596.45856     -14147.534      2279.0007      2554.9362      1205.4142      31.260239      31.072106      62.044043    
      3100   601.80917     -14140.349     -291.6091      -294.32592     -1364.7859      31.319979      31.100241      61.937475    
      3200   603.71344     -14139.446     2700   596.83503     -14142.268      1209.614       1439.9327      858.85906      31.333393      31.008526      61.788505    
      2800   604.48664     -14137.346      1976.007       836.93737     -1340.6421      31.340582      31.146154      61.576428    
      2900   605.63511     -14137.919      1046.0804     -3440.0489     -177.88844      31.459263      31.085858      61.584131    
      3000   596.45856     -14147.534      2279.0007      2554.9362      1205.4142      31.260239      31.072106      62.044043    
      3100   601.80917     -14140.349     -291.6091      -294.32592     -1364.7859      31.319979      31.100241      61.937475    
      3200   603.71344     -14139.446     -880.83605     -2110.0663     -734.76294      31.369216      31.065162      61.56788     
      3300   595.40154     -14144.708      792.31241      2128.4219     -127.15025      31.256412      31.059452      61.735662    
      3400   594.37391     -14135.875      96.196791     -300.4738       1550.4662      31.367342      30.965202      61.967927    
      3500   612.28196     -14135.638     -842.0749      -276.26118     -1063.4159      31.341026      31.01363       62.042066    
      3600   595.77622     -14139.505     -1767.1801      222.65145     -1317.0476      31.245033      31.059372      61.960797    
      3700   608.02603     -14138.272     -2040.7221     -166.89926      1010.5097      31.278202      30.964892      62.325098    
      3800   603.7167      -14132.808     -1916.4066     -38.385496      545.3024       31.322647      30.954747      61.935985    
      3900   595.52301     -14142.529     -1534.6615     -368.28839     -1637.6629      31.333145      31.038361      61.639782    
      4000   589.00236     -14139.183      2164.5622      571.97056      1268.2545      31.390201      31.02605       61.96477     
      4100   591.32815     -14131.123      3243.1187      810.07032      1685.4963      31.381848      31.053757      61.422517    
      4200   601.9633      -14137.96       387.21279     -1093.7213     -1252.2853      31.367573      31.089186      61.786642    
      4300   593.33254     -14140.5        1464.8384     -4.655494       255.22979      31.346755      31.073704      61.341261    
      4400   594.56623     -14148.105     -251.93837      157.35261     -1173.5494      31.317331      31.082054      61.707966    
      4500   595.88372     -14149.521      619.99266      853.98717      636.73461      31.316295      31.005523      61.55387     
      4600   601.13606     -14136.61      -20.101658     -577.07372      707.07424      31.376898      30.983474      61.753241    
      4700   602.61862     -14137.173     -1217.1674     -1722.9704     -1615.1349      31.346992      31.055265      61.958255    
      4800   601.68322     -14138.769      260.03516   Pair    | 8.7796     | 10.635     | 12.477     |  54.4 | 78.30
Neigh   | 0.15071    | 0.2616     | 0.38647    |  19.2 |  1.93
Comm    | 0.48333    | 2.3307     | 4.2259     | 114.5 | 17.16
Output  | 0.0011692  | 0.0015178  | 0.0025301  |   1.5 |  0.01
Modify  | 0.17623    | 0.31504    | 0.68879    |  38.5 |  2.32
Other   |            | 0.03787    |            |       |  0.28

Nlocal:           1059 ave        1291 max         794 min
Histogram: 1 0 1 0 0 0 0 0 1 1
Nghost:        3571.25 ave        4520 max        2280 min
Histogram: 1 0 0 0 0 1 0 1 0 1
Neighs:        96557.2 ave      136744 max       59518 min
Histogram: 2 0 0 0 0 0 0 0 0 2

Total # of neighbors = 386229
Ave neighs/atom = 91.177762
Neighbor list builds = 158
Dangerous builds = 0
=== Phase 2b: Cooling 600.0K -> 300.0K ===
Setting up Verlet run ...
  Unit style    : metal
  Current step  : 5000
  Time step     : 0.002
Per MPI rank memory allocation (min/avg/max) = 3.499 | 3.741 | 3.985 Mbytes
   Step          Temp          PotEng         Press           Pxx            Pyy             Lx             Ly             Lz      
      5000   608.44804     -14128.699     -1347.874       587.21898      798.78303      31.300661      30.952406      62.193608    
      5100   592.87155     -14136.111     -1663.6316     -499.04993     -528.43484      31.343207      30.985338      61.706101    
      5200   587.09157     -14146.635     -54.504392     -177.69847     -273.53786  unfix ann

print '=== Phase 2b: Cooling 600.0K -> 300.0K ==='
=== Phase 2b: Cooling 600.0K -> 300.0K ===
fix cool all npt temp 600.0 300.0 0.1 x 0.0 0.0 1.0 y 0.0 0.0 1.0
run 5000
Per MPI rank memory allocation (min/avg/max) = 3.499 | 3.741 | 3.985 Mbytes
   Step          Temp          PotEng         Press           Pxx            Pyy             Lx             Ly             Lz      
      5000   608.44804     -14128.699     -1347.874       587.21898      798.78303      31.300661      30.952406      62.193608    
      5100   592.87155     -14136.111     -1663.6316     -499.04993     -528.43484      31.343207      30.985338      61.706101    
      5200   587.09157     -14146.635     -54.504392     -177.69847     -273.53786      31.378891      30.958263      61.74173     
      5300   578.94042     -14150.662      1487.4344      931.52212      514.53566      31.393011      30.946496      61.619543    
      5400   577.22389     -14151.81      -43.457122     -1681.032      -1665.5307      31.452585      31.004094      61.645064    
      5500   568.64105     -14163.188      2299.8712      1294.5783      1919.3539      31.374943      30.956904      61.553498    
      5600   562.82497     -14164.107     -221.8773      -641.70672     -1317.0286      31.39255       30.991211      61.594583    
      5700   571.86659     -14163.168      685.42695      1360.2207     -570.56239      31.363446      30.980457      61.577489    
      5800   566.1211      -14175.775      1950.9178      998.55453      1642.2977      31.380778      30.900179      61.632897    
      5900   544.12549     -14175.95      -2730.1563     -4186.5377     -3898.4604      31.453867      30.938355      61.394885    
      6000   539.85064     -14176.003      1492.2672      2466.0409      1969.8144      31.320405      30.862461      61.695793    
      6100   525.92833     -14177.068      411.59362      1643.3727      2153.6878      31.303255      30.867522      61.379791    
      6200   519.9522      -14182.121     -3545.7526     -1822.766      -2083.2278      31.274931      30.943214      61.852525    
      6300   528.21375     -14191.064     -756.55682      659.85001      1220.1938      31.243232      30.906033      61.589787    
      6400   519.98533     -14193.599     -551.10318     -276.69107      202.2242       31.282756      30.916225      61.761852    
      6500   509.1562      -14199.042      357.1271      -402.45044     -653.06393      31.305365      30.953483      61.476801    
      6600   507.87713     -14202.131      1829.4518      910.10842      603.32796      31.307389      30.943433      61.167376    
      6700   494.1682      -14208.466      227.42001     -1090.7586     -561.4486       31.309959      30.958608      60.970491    
      6800   495.29147     -14212.504      1430.0657      445.93004      892.26325      31.262454      30.968096      60.961339    
      6900   491.93807     -14218.01       1125.2004      585.9006       381.51923      31.248025      30.954696      60.973292    
      7000   480.90997     -14218.016     -1252.7736     -2807.2221     -1992.0438      31.316277      30.96705       60.994547    
      7100   477.12615     -14220.557      2772.6983      2837.4564      2092.4577      31.239427      30.889688      61.217287    
      7200   471.95367     -14224.677     -1317.3048          7800   438.08698     -14247.998     -932.09817     -525.99426     -3503.9765      31.199213      30.975055      61.02798     
      7900   431.3814      -14254.911      1625.4243      424.01595      1342.606       31.233088      30.874817      60.890745    
      8000   421.25718     -14257.237      1533.6261      85.477337      1268.9989      31.228277      30.871003      60.756348    
      8100   414.53752     -14259.336     -336.58624      58.1913       -2066.5382      31.187709      30.951085      60.831497    
      8200   415.88283     -14264.374      1954.2018      341.1214       2505.5971      31.284074      30.785077      60.718989    
      8300   406.56207     -14267.3        575.93053     -614.82211      597.00268       438.08698     -14247.998     -932.09817     -525.99426     -3503.9765      31.199213      30.975055      61.02798     
      7900   431.3814      -14254.911      1625.4243      424.01595      1342.606       31.233088      30.874817      60.890745    
      8000   421.25718     -14257.237      1533.6261      85.477337      1268.9989      31.228277      30.871003      60.756348    
      8100   414.53752     -14259.336     -336.58624      58.1913       -2066.5382      31.187709      30.951085      60.831497    
      8200   415.88283     -14264.374      1954.2018      341.1214       2505.5971      31.284074      30.785077      60.718989    
      8300   406.56207     -14267.3        575.93053     -614.82211      597.00268      31.255724      30.80965       60.865575    
      8400   403.58592     -14273.439     -1153.8935      331.6513      -3193.1264      31.155972      30.908201      61.037178    
      8500   390.95511     -14269.715      581.33185      1128.6612      3005.4233      31.210462      30.734109      61.18432     
      8600   385.63935     -14275.418     -2654.0481     -1621.5002     -796.45532      31.223642      30.770851      61.06786     
      8700   378.47319     -14279.298     -1451.8458      345.50444     -493.95312      31.159003      30.805604      61.1669      
      8800   375.41086     -14285.426      74.284257      411.91447      1225.7793      31.179979      30.771424      60.949104    
      8900   369.97038     -14289.795     -1207.1432     -1540.357      -1931.8339      31.216856      30.836593      60.653207    
      9000   365.39824     -14293.509      1744.0285      1185.4418      617.74002      31.172389      30.828392      60.653207    
      9100   353.34385     -14293.756      699.76416     -376.7451      -101.24799      31.209093      30.828299      60.587654    
      9200   353.22123     -14301.788      275.98669     -370.17206     -618.08238      31.173652      30.846103      60.701798    
      9300   342.23924     -14303.041      1803.9801      1845.0076      625.23906      31.130754      30.834722      60.701798    
      9400   338.27777     -14307.03       80.766826     -1031.4418     -401.78703      31.200333      30.800152      60.743746    
      9500   332.93211     -14310.465      415.97386      271.66209      612.11995      31.160753      30.787775      60.81479     
      9600   331.52951     -14315.613      307.00835      1702.7753      260.5744       31.103836      30.786169      60.727798    
      9700   320.55019     -14316.055     -2007.085      -2006.6995     -209.42766      31.183311      30.736839      60.796598    
      9800   323.7325      -14324.59      -515.41873      1513.317       694.3Neigh   | 0.10762    | 0.18203    | 0.2673     |  16.4 |  1.38
Comm    | 0.48842    | 2.2904     | 4.2639     | 116.5 | 17.41
Output  | 0.001111   | 0.0014406  | 0.0023778  |   1.4 |  0.01
Modify  | 0.17084    | 0.26159    | 0.48894    |  25.7 |  1.99
Other   |            | 0.03854    |            |       |  0.29

Nlocal:           1059 ave        1304 max         792 min
Histogram: 1 0 1 0 0 0 0 0 1 1
Nghost:        3700.25 ave        4747 max        2390 min
Histogram: 1 0 0 0 0 1 0 1 0 1
Neighs:        98573.2 ave      143227 max       60937 min
Histogram: 2 0 0 0 0 0 0 0 1 1

Total # of neighbors = 394293
Ave neighs/atom = 93.081445
Neighbor list builds = 111
Dangerous builds = 0
=== Phase 3: Define Grips ===
504 atoms in group bottom
293 atoms in group top
3439 atoms in group mobile
Bottom grip: 504 atoms
Top grip:    293 atoms
Mobile:      3439 atoms
=== Phase 4: Equilibration with Grips ===
Setting up Verlet run ...
  Unit style    : metal
  Current step  : 0
  Time step     : 0.002
Per MPI rank memory allocation (min/avg/max) = 3.499 | 3.741 | 3.985 Mbytes
   Step          Temp          PotEng         Press           Pxx            Pyy             Lx             Ly             Lz      
         0   245.97202     -14327.416     -1568.6852     -2270.3724     -691.31888      31.173244      30.740856      60.729852    
       100   270.06385     -14315.94      -1188.8329     -1096.2796     -2407.6811  unfix cool

# 焼きなまし後の座標を基準にグリップ領域を定義
print '=== Phase 3: Define Grips ==='
=== Phase 3: Define Grips ===
variable zmin equal bound(all,zmin)
variable zmax equal bound(all,zmax)
variable grip_thick equal 5.0
variable zlo_grip equal ${zmin}+${grip_thick}
variable zlo_grip equal 1.48590136914116+${grip_thick}
variable zlo_grip equal 1.48590136914116+5
variable zhi_grip equal ${zmax}-${grip_thick}
variable zhi_grip equal 62.2030058373199-${grip_thick}
variable zhi_grip equal 62.2030058373199-5

region rgn_bot block INF INF INF INF INF ${zlo_grip}
region rgn_bot block INF INF INF INF INF 6.48590136914116
region rgn_top block INF INF INF INF ${zhi_grip} INF
region rgn_top block INF INF INF INF 57.2030058373199 INF
group bottom region rgn_bot
504 atoms in group bottom
group top region rgn_top
293 atoms in group top
group mobile subtract all bottom top
3439 atoms in group mobile

print 'Bottom grip: $(count(bottom)) atoms'
Bottom grip: 504 atoms
print 'Top grip:    $(count(top)) atoms'
Top grip:    293 atoms
print 'Mobile:      $(count(mobile)) atoms'
Mobile:      3439 atoms

print '=== Phase 4: Equilibration with Grips ==='
=== Phase 4: Equilibration with Grips ===
reset_timestep 0
velocity bottom set 0.0 0.0 0.0
velocity top set 0.0 0.0 0.0
# グリップ: nve（時間積分）+ setforce 0（力ゼロ）→ 等速運動
fix nve_bot bottom nve
fix nve_top top nve
fix freeze_bot bottom setforce 0.0 0.0 0.0
fix freeze_top top setforce 0.0 0.0 0.0
fix eq mobile npt temp 300.0 300.0 0.1 x 0.0 0.0 1.0 y 0.0 0.0 1.0
run 5000
Per MPI rank memory allocation (min/avg/max) = 3.499 | 3.741 | 3.985 Mbytes
   Step          Temp          PotEng         Press           Pxx            Pyy             Lx             Ly             Lz      
         0   245.97202     -14327.416     -1568.6852     -2270.3724     -691.31888      31.173244      30.740856      60.729852    
       100   270.06385     -14315.94      -1188.8329     -1096.2796     -2407.6811      31.155308      30.      1700   302.91319     -14297.022     -158.81774     -21.510527     -144.63023      31.157649      30.806536      60.729852    
      1800   309.37135     -14297.329     -287.11265     -26.841859     -279.54665      31.182199      30.797838      60.729852    
      1900   298.77144     -14297.109     -373.65313     -178.50943     -652.21252      31.177779      30.806383      60.729852    
      2000   298.86236     -14297.92      -51.465064     -1025.4199     -7.7256815      31.209707      30.778323      60.729852    
      2100   304.00386     -14296.505     -229.94993     -346.62605     -858.56272      31.174959      30.822449      60.729852    
      2200   297.62812     -14294.545      535.79193     -563.02622      759.47645      31.208062      30.778926      60.729852    
      2300   303.48724     -14300.022      426.13311      754.64541     -585.05795      31.150477      30.818473      60.729852    
      2400   299.88814     -14300.126      919.48449      196.63763      1411.9834      31.174334      30.774431      60.729852    
      2500   303.13108     -14294.767      573.14348      838.15581      325.24915      31.15425       30.809456      60.729852    
      2600   299.4345      -14296.525      16.453409     -476.27405      926.53555      31.202754      30.757924      60.729852    
      2700   291.70636     -14296.663     -251.16595      635.05649     -948.08022      31.155522      30.815473      60.729852    
      2800   299.53686     -14295.697     -764.54708     -1226.8278     -660.04912      31.206998      30.783935      60.729852    
      2900   302.85211     -14295.849     -988.49492     -618.99944     -1700.5509      31.18539       30.819826      60.729852    
      3000   297.36919     -14298.141     -429.74016     -1194.3456     -274.71125      31.222951      30.769961      60.729852    
      3100   292.911       -14298.335      161.05332      319.06437     -628.05374      31.174064      30.802863      60.729852    
      3200   299.50924     -14294.471      477.49992     -799.97982      709.13674      10527     -144.63023      31.157649      30.806536      60.729852    
      1800   309.37135     -14297.329     -287.11265     -26.841859     -279.54665      31.182199      30.797838      60.729852    
      1900   298.77144     -14297.109     -373.65313     -178.50943     -652.21252      31.177779      30.806383      60.729852    
      2000   298.86236     -14297.92      -51.465064     -1025.4199     -7.7256815      31.209707      30.778323      60.729852    
      2100   304.00386     -14296.505     -229.94993     -346.62605     -858.56272      31.174959      30.822449      60.729852    
      2200   297.62812     -14294.545      535.79193     -563.02622      759.47645      31.208062      30.778926      60.729852    
      2300   303.48724     -14300.022      426.13311      754.64541     -585.05795      31.150477      30.818473      60.729852    
      2400   299.88814     -14300.126      919.48449      196.63763      1411.9834      31.174334      30.774431      60.729852    
      2500   303.13108     -14294.767      573.14348      838.15581      325.24915      31.15425       30.809456      60.729852    
      2600   299.4345      -14296.525      16.453409     -476.27405      926.53555      31.202754      30.757924      60.729852    
      2700   291.70636     -14296.663     -251.16595      635.05649     -948.08022      31.155522      30.815473      60.729852    
      2800   299.53686     -14295.697     -764.54708     -1226.8278     -660.04912      31.206998      30.783935      60.729852    
      2900   302.85211     -14295.849     -988.49492     -618.99944     -1700.5509      31.18539       30.819826      60.729852    
      3000   297.36919     -14298.141     -429.74016     -1194.3456     -274.71125      31.222951      30.769961      60.729852    
      3100   292.911       -14298.335      161.05332      319.06437     -628.05374      31.174064      30.802863      60.729852    
      3200   299.50924     -14294.471      477.49992     -799.97982      709.13674      31.210916      30.      4800   303.74213     -14291.289      1040.7008      2365.6234     -191.19241      31.107373      30.848257      60.729852    
      4900   304.57395     -14296.894      632.8739      -613.53241      1900.0984      31.198917      30.759126      60.729852    
      5000   308.87709     -14302.773     -323.36844      697.77363     -1455.4587      31.101753      30.875475      60.729852    
Loop time of 12.4492 on 4 procs for 5000 steps with 4236 atoms

Performance: 69.402 ns/day, 0.346 hours/ns, 401.633 timesteps/s, 1.701 Matom-step/s
103.5% CPU use with 4 MPI tasks x 1 OpenMP threads

MPI task timing breakdown:
Section |  min time  |  avg time  |  max time  |%varavg| %total
---------------------------------------------------------------
Pair    | 8.394      | 10.051     | 11.711     |  51.5 | 80.74
Neigh   | 0.051948   | 0.087428   | 0.12221    |  10.8 |  0.70
Comm    | 0.37044    | 2.001      | 3.7488     | 113.2 | 16.07
Output  | 0.0010865  | 0.001444   | 0.0024916  |   1.6 |  0.01
Modify  | 0.1941     | 0.2706     | 0.46631    |  21.8 |  2.17
Other   |            | 0.03779    |            |       |  0.30

Nlocal:           1059 ave        1292 max         792 min
Histogram: 1 0 1 0 0 0 0 0 1 1
Nghost:        3691.25 ave        4722 max        2373 min
Histogram: 1 0 0 0 0 1 0 1 0 1
Neighs:        98358.2 ave      141753 max       60896 min
Histogram: 2 0 0 0 0 0 0 0 1 1

Total # of neighbors = 393433
Ave neighs/atom = 92.878423
Neighbor list builds = 53
Dangerous builds = 0
=== Phase 5: Tensile Test ===
Initial grip distance L0 = 56.305427907983 Ang
Pull velocity = 0.112610855815966 Ang/ps (erate=0.002/ps)
Setting up Verlet run ...
  Unit style    : metal
  Current step  : 0
  Time step     : 0.002
Per MPI rank memory allocation (min/avg/max) = 5.01 | 5.252 | 5.485 Mbytes
   Step          Temp         v_strain     v_stress_zz        Pxx            Pyy             Lx             Ly           v_Lmat    
         0   308.88659     -1.2619436e-16  0.022880412    697.77363     -1455.4587      31.101753      30.875475      56.305428    
       100   267.92194      0.0004         0.12503197    -749.5977      -3146.3285      31.101753      30.875475      56.32795     
       200   244.90866      0.0008         0.30901351    -2789.6238     -4870.7705      31.101753      30.875475      56.350472    
       300   241.69673      0.0012         0.5438302     -3698.9143     -6133.4871      31.101753      30.875475      56.372994    
       400   248.82539      0.0016         0.56204457    -3246.122      -5992.9245      31.101753      30.875475      56.395517    
       500   248.67568      0.002          0.67079043    -3582.4873     -6030.726       31.101753      30.875475      56.418039    
       600   241.0696       0.0024         0.82010958    -3847.3821     -7154.4191      31.101753      30.875475      56.440561    
       700   243.87732      0.0028         0.85725606    -4450.0314     -7307.979       31.101753      30.875475      56.463083    
       800   247.11769      0.0032         0.88400392    -4318.3061     -7128.3187      31.101753      30.875475      56.485605    
       900   242.43238      0.0036         0.83434234    -4159.5335     -7658.6966      31.101753      30.875475      56.508127    
      1000   246.46406      0.004          0.89308804    -4459.6943     -7890.988       31.101753      30.875475      56.53065     
      1100   245.16804      0.0044         0.84075581    -4169.2681     -7443.3432      31.101753      30.875475      unfix eq

print '=== Phase 5: Tensile Test ==='
=== Phase 5: Tensile Test ===
reset_timestep 0

# グリップ重心間距離で初期材料長を定義
variable zcm_bot equal xcm(bottom,z)
variable zcm_top equal xcm(top,z)
variable tmp_L equal v_zcm_top-v_zcm_bot
variable L0 equal ${tmp_L}
variable L0 equal 56.305427907983
print 'Initial grip distance L0 = ${L0} Ang'
Initial grip distance L0 = 56.305427907983 Ang

# 引っ張り速度 = erate × L0
variable vpull equal 0.002*v_L0
velocity top set 0.0 0.0 ${vpull}
velocity top set 0.0 0      1600   240.97067      0.0064         1.2771903     -6002.9199     -8290.1475      31.101753      30.875475      56.665783    
      1700   244.14806      0.0068         1.3421117     -6182.0042     -9111.8619      31.101753      30.875475      56.688305    
      1800   246.90007      0.0072         1.4126618     -6714.7568     -9219.1661      31.101753      30.875475      56.710827    
      1900   238.9165       0.0076         1.4148787     -7273.1067     -9246.2903      31.101753      30.875475      56.733349    
      2000   245.01407      0.008          1.3914019     -6595.6211     -8934.614       31.101753      30.875475      56.755871    
      2100   246.01116      0.0084         1.3658456     -7238.6537     -9281.5135      31.101753      30.875475      56.778394    
      2200   242.32224      0.0088         1.3853571     -6873.8614     -8920.8048      31.101753      30.875475      56.800916    
      2300   243.23535      0.0092         1.4118639     -7133.2024     -9528.59        31.101753      30.875475      56.823438    
      2400   247.7118       0.0096         1.522312      -7367.3197     -9209.063       31.101753      30.875475      56.84596     
      2500   241.74308      0.01           1.6743038     -8219.5826     -10627.046      31.101753      30.875475      56.868482    
      2600   245.51381      0.0104         1.7613736     -8285.0908     -10582.93       31.101753      30.875475      56.891004    
      2700   248.43848      0.0108         1.8490621     -8627.1485     -10952.105      31.101753      30.875475      56.913527    
      2800   243.93752      0.0112         1.8892009     -8406.7421     -11270.329      31.101753      30.875475      56.936049    
      2900   242.06368      0.0116         1.909041      -8201.9731     -11141.97       31.101753      30.875475      56.958571    
      3000   244.38287      0.012          1.867557      -8758.1232     -10922.194      31.101753      30.875475      56.981093    
      3100   239.60852      0.0124         1.9012165     -9185.2281     -11297.121      31.101753      30.875475      57.003615    
      3200   244.3028       0.0128         1.8197979     -8581.2854     -10618.888      31.101753      30.875475      57.026137    
      3300   243.82614      0.0132         1.8711953     -8907.0883     -11433.177      31.101753      30.875475      57.04866     
      3400   242.55817      0.0136         2.0524972     -10013.903     -11977.769      31.101753      30.875475      57.071182    
      3500   240.5897       0.014          2.1484821     -9709.6424     -11951.317      31.101753      30.875475      57.093704    
      3600   243.23442      0.0144         2.1924055     -10172.864     -11973.247      31.101753      30.875475      57.116226    
      3700   244.22464      0.0148         2.2941332     -9723.8145     -12123.331      31.101753      30.875475      57.138748    
      3800   239.68065      0.0152         2.3686252     -10232.646     -12804.005      31.101753      30.875475      57.16127     
      3900   248.834        0.0156         2.4034852     -10471.579     -13790.409      31.101753      30.875475      57.183793    
      4000   245.57647      0.016          2.3236163     -9979.1228     -12848.013      31.101753      30.875475      57.206315    
      4100   243.37657      0.0164         2.4170834     -11180.309     -13567.874      31.101753      30.875475      57.228837    
      4200   242.66009      0.0168         2.2995283     -10730.916     -12748.913      31.101753      30.875475      57.271903     -6002.9199     -8290.1475      31.101753      30.875475      56.665783    
      1700   244.14806      0.0068         1.3421117     -6182.0042     -9111.8619      31.101753      30.875475      56.688305    
      1800   246.90007      0.0072         1.4126618     -6714.7568     -9219.1661      31.101753      30.875475      56.710827    
      1900   238.9165       0.0076         1.4148787     -7273.1067     -9246.2903      31.101753      30.875475      56.733349    
      2000   245.01407      0.008          1.3914019           4700   243.4454       0.0188         2.7369895     -11409.796     -15074.438      31.101753      30.875475      57.36397     
      4800   241.13127      0.0192         2.8144132     -11733.8       -15473.343      31.101753      30.875475      57.386492    
      4900   246.17804      0.0196         2.843746      -11694.668     -15381.677      31.101753      30.875475      57.409014    
      5000   236.62655      0.02           2.8759088     -12045.375     -15439.157      31.101753      30.875475      57.431536    
      5100   239.51234      0.0204         2.8536297     -12193.891     -15677.675      31.101753      30.875475      57.454059    
      5200   244.13844      0.0208         2.8706248     -12105.89      -15533.585      31.101753      30.875475      57.476581    
      5300   240.90291      0.0212         2.7724375     -11713.235     -14756.255      31.101753      30.875475      57.499103    
      5400   243.42832      0.0216         2.8877479     -12645.168     -15563.67       31.101753      30.875475      57.521625    
      5500   249.03314      0.022          2.9279753     -12668.094     -16071.909      31.101753      30.875475      57.544147    
      5600   242.01354      0.0224         3.0121426     -12318.359     -15615.2        31.101753      30.875475      57.566669    
      5700   241.08741      0.0228         3.1155866     -13064.783     -16815.064      31.101753      30.875475      57.589192    
      5800   237.72528      0.0232         3.1764039     -13340.346     -16702.555      31.101753      30.875475      57.611714    
      5900   240.36156      0.0236         3.274457      -13441.893     -16750.943      31.101753      30.875475      57.634236    
      6000   248.03022      0.024          3.3002603     -13601.408     -17198.59       31.101753      30.875475      57.656758    
      6100   243.37365      0.0244         3.2923089     -14006.351     -17797.518      31.101753      30.875475      57.67928     
      6200   244.59045      0.0248         3.2729477     -13832.991     -17066.364      31.101753      30.875475      57.701803    
      6300   248.48586      0.0252         3.2790963     -14218.365     -16955.072      31.101753      30.875475      57.724325    
      6400   237.73591      0.0256         3.3175711     -13705.183     -17307.176      31.101753      30.875475      57.746847    
      6500   245.26907      0.026          3.2447038     -14087.817     -16619.273      31.101753      30.875475      57.769369    
      6600   241.44997      0.0264         3.2786005     -14201.442     -16953.594      31.101753      30.875475      57.791891    
      6700   239.40012      0.0268         3.4530021     -15567.69      -17770.646      31.101753      30.875475      57.814413    
      6800   239.91891      0.0272         3.4956519     -14919.388     -17920.727      31.101753      30.875475      57.836936    
      6900   247.67449      0.0276         3.5864052     -15263.869     -17953.943      31.101753      30.875475      57.859458    
      7000   244.08749      0.028          3.6775828     -15299.653     -18209.668      31.101753      30.875475      57.88198     
      7100   236.47371      0.0284         3.7218011     -15811.599     -18479.029      31.101753      30.875475      57.904502    
      7200   241.15156      0.0288         3.6913269     -15489.023     -17993.397      31.101753      30.875475      57.927024    
      7300   247.8696       0.0292         3.7355189     -16376.381     -18087.314      31.101753      30.875475      57.949545     -11409.796     -15074.438      31.101753      30.875475      57.36397     
      4800   241.13127      0.0192         2.8144132     -11733.8       -15473.343      31.101753      30.875475      57.386492    
      4900   246.17804      0.0196         2.843746      -11694.668     -15381.677      31.101753      30.875475      57.409014    
      5000   236.62655      0.02           2.8759088     -12045.375     -15439.157      31.101753      30.875475      57.431536    
      5100   239.51234      0.0204         2.8536297           7800   241.80523      0.0312         3.8366537     -16534.594     -19453.636      31.101753      30.875475      58.062157    
      7900   244.07475      0.0316         3.8357737     -16058.334     -19487.07       31.101753      30.875475      58.084679    
      8000   238.47272      0.032          3.9583525     -16087.36      -19661.922      31.101753      30.875475      58.107202    
      8100   239.75346      0.0324         4.0596169     -17197.054     -20546.003      31.101753      30.875475      58.129724    
      8200   243.41599      0.0328         4.0895901     -16977.686     -20099.968      31.101753      30.875475      58.152246    
      8300   244.19182      0.0332         4.134225      -17467.648     -20356.682      31.101753      30.875475      58.174768    
      8400   236.91447      0.0336         4.1540654     -17563.011     -21036.327      31.101753      30.875475      58.19729     
      8500   244.83411      0.034          4.1137735     -17144.917     -20411.425      31.101753      30.875475      58.219812    
      8600   239.22774      0.0344         4.0642589     -17153.892     -20193.525      31.101753      30.875475      58.242335    
      8700   238.61262      0.0348         4.1133504     -17500.345     -20645.686      31.101753      30.875475      58.264857    
      8800   245.49644      0.0352         4.0863857     -17329.464     -20900.633      31.101753      30.875475      58.287379    
      8900   244.98765      0.0356         4.1412096     -17625.232     -20775.734      31.101753      30.875475      58.309901    
      9000   237.19027      0.036          4.3068313     -17934.354     -20685.974      31.101753      30.875475      58.332423    
      9100   245.94683      0.0364         4.3717053     -18594.286     -21078.239      31.101753      30.875475      58.354945    
      9200   246.13448      0.0368         4.3749167     -18729.216     -20833.5        31.101753      30.875475      58.377468    
      9300   246.00702      0.0372         4.4683626     -19135.282     -21062.334      31.101753      30.875475      58.39999     
      9400   240.70008      0.0376         4.4751828     -19609.276     -22002.038      31.101753      30.875475      58.422512    
      9500   247.35478      0.038          4.56348       -19272.044     -21593.146      31.101753      30.875475      58.445034    
      9600   241.17795      0.0384         4.4674458     -19398.434     -21356.055      31.101753      30.875475      58.467556    
      9700   243.56545      0.0388         4.5129446     -19478.702     -21795.862      31.101753      30.875475      58.490079    
      9800   247.53853      0.0392         4.445424      -19284.761     -20671.902      31.101753      30.875475      58.512601    
      9900   247.5289       0.0396         4.4683477     -19936.28      -21751.126      31.101753      30.875475      58.535123    
     10000   243.83284      0.04           4.496556      -20193.564     -21626.838      31.101753      30.875475      58.557645    
     10100   247.11511      0.0404         4.4608332     -19227.055     -21556.122      31.101753      30.875475      58.580167    
     10200   241.14833      0.0408         4.6531233     -19876.971     -22141.82       31.101753      30.875475      58.602689    
     10300   243.97405      0.0412         4.6872351     -20561.496     -22549.701      31.101753      30.875475      58.625212    
     10400   242.40048      0.0416         4.7342497     -20263.022     -22216.361      31.101753      30.875475      58.647734     -16534.594     -19453.636      31.101753      30.875475      58.062157    
      7900   244.07475      0.0316         3.8357737     -16058.334     -19487.07       31.101753      30.875475      58.084679    
      8000   238.47272      0.032          3.9583525     -16087.36      -19661.922      31.101753      30.875475      58.107202    
      8100   239.75346      0.0324         4.0596169     -17197.054     -20546.003      31.101753      30.875475      58.129724    
      8200   243.41599      0.0328         4.0895901          10900   243.35335      0.0436         4.8389246     -20971.374     -22961.782      31.101753      30.875475      58.760345    
     11000   245.51949      0.044          4.7825458     -21107.78      -22514.631      31.101753      30.875475      58.782867    
     11100   239.51274      0.0444         4.7878196     -21321.254     -22948.171      31.101753      30.875475      58.805389    
     11200   239.10075      0.0448         4.8390984     -21108.228     -23035.736      31.101753      30.875475      58.827911    
     11300   246.65087      0.0452         4.8301266     -21285.118     -23303.362      31.101753      30.875475      58.850433    
     11400   240.67119      0.0456         5.0331056     -21763.23      -24113.835      31.101753      30.875475      58.872955    
     11500   242.53016      0.046          5.0972055     -21617.565     -24319.652      31.101753      30.875475      58.895478    
     11600   246.32084      0.0464         5.1794739     -21945.792     -23858.436      31.101753      30.875475      58.918       
     11700   240.51404      0.0468         5.2115596     -22775.919     -24646.491      31.101753      30.875475      58.940522    
     11800   239.6576       0.0472         5.2340837     -22774.459     -24626.446      31.101753      30.875475      58.963044    
     11900   245.01405      0.0476         5.1914049     -22876.919     -24634.873      31.101753      30.875475      58.985566    
     12000   243.58275      0.048          5.1715239     -22438.425     -24481.664      31.101753      30.875475      59.008088    
     12100   236.04473      0.0484         5.1769798     -22751.383     -24812.15       31.101753      30.875475      59.030611    
     12200   244.1874       0.0488         5.0633923     -22786.883     -24333.303      31.101753      30.875475      59.053133    
     12300   245.94532      0.0492         5.1075155     -22672.694     -24409.567      31.101753      30.875475      59.075655    
     12400   247.09162      0.0496         5.0443375     -22806.876     -24353.967      31.101753      30.875475      59.098177    
     12500   241.90707      0.05           5.1372171     -23280.672     -25366.605      31.101753      30.875475      59.120699    
     12600   241.23164      0.0504         5.0785334     -23959.782     -25023.838      31.101753      30.875475      59.143221    
     12700   245.90461      0.0508         5.1133329     -23947.004     -25730.096      31.101753      30.875475      59.165744    
     12800   248.80051      0.0512         5.3059034     -24830.774     -26189.741      31.101753      30.875475      59.188266    
     12900   240.12759      0.0516         5.1763598     -24440.346     -26363.869      31.101753      30.875475      59.210788    
     13000   251.64177      0.052          5.1551002     -25334.946     -26060.661      31.101753      30.875475      59.23331     
     13100   241.14507      0.0524         5.1127945     -25669.683     -26372.326      31.101753      30.875475      59.255832    
     13200   238.75348      0.0528         5.1335436     -26456.015     -26968.469      31.101753      30.875475      59.278355    
     13300   242.46758      0.0532         4.9843374     -26189.155     -26670.893      31.101753      30.875475      59.300877    
     13400   243.90677      0.0536         4.8194695     -25972.499     -26280.82       31.101753      30.875475      59.323399    
     13500   238.35058      0.054          4.7391032     -26598.157     -26736.644      31.101753      30.875475      59.345921    
  0971.374     -22961.782      31.101753      30.875475      58.760345    
     11000   245.51949      0.044          4.7825458     -21107.78      -22514.631      31.101753      30.875475      58.782867    
     11100   239.51274      0.0444         4.7878196     -21321.254     -22948.171      31.101753      30.875475      58.805389    
     11200   239.10075      0.0448         4.8390984     -21108.228     -23035.736      31.101753      30.875475      58.827911    
     11300   246.65087      0.0452         4.8301266          14000   244.34748      0.056          5.0968268     -27982.6       -28293          31.101753      30.875475      59.458532    
     14100   243.42871      0.0564         5.1024854     -27988.086     -27895.491      31.101753      30.875475      59.481054    
     14200   241.55072      0.0568         5.0147215     -27725.364     -27841.829      31.101753      30.875475      59.503576    
     14300   240.52607      0.0572         5.0682147     -28096.061     -28510.41       31.101753      30.875475      59.526098    
     14400   243.73682      0.0576         5.0455792     -28002.932     -28074.238      31.101753      30.875475      59.548621    
     14500   246.94202      0.058          4.9867573     -27253.427     -27805.761      31.101753      30.875475      59.571143    
     14600   237.56953      0.0584         4.9241194     -28649.253     -27970.968      31.101753      30.875475      59.593665    
     14700   245.30772      0.0588         4.9637439     -28515.354     -27918.806      31.101753      30.875475      59.616187    
     14800   248.07503      0.0592         5.0113268     -29114.795     -27955.681      31.101753      30.875475      59.638709    
     14900   244.22112      0.0596         5.0336557     -28689.388     -28499.427      31.101753      30.875475      59.661231    
     15000   240.0866       0.06           5.1806378     -29317.345     -28865.503      31.101753      30.875475      59.683754    
     15100   245.49808      0.0604         5.1708218     -29337.762     -28724.572      31.101753      30.875475      59.706276    
     15200   242.98349      0.0608         5.2645845     -29928.889     -29239.928      31.101753      30.875475      59.728798    
     15300   238.88572      0.0612         5.2990064     -29933.645     -29600.496      31.101753      30.875475      59.75132     
     15400   245.36315      0.0616         5.3568533     -29467.755     -28906.441      31.101753      30.875475      59.773842    
     15500   241.29829      0.062          5.2740898     -30154.985     -28939.117      31.101753      30.875475      59.796364    
     15600   238.81405      0.0624         5.2965382     -30974.525     -29446.033      31.101753      30.875475      59.818887    
     15700   243.1843       0.0628         5.1239867     -29737.061     -28254.804      31.101753      30.875475      59.841409    
     15800   245.33262      0.0632         5.1742862     -30651.808     -29112.544      31.101753      30.875475      59.863931    
     15900   240.00708      0.0636         5.1554731     -30564.105     -29115.784      31.101753      30.875475      59.886453    
     16000   247.62779      0.064          5.1776659     -30419.953     -28965.624      31.101753      30.875475      59.908975    
     16100   240.70517      0.0644         5.2273746     -30639.595     -29184.855      31.101753      30.875475      59.931497    
     16200   239.14942      0.0648         5.2349329     -31224.57      -29901.933      31.101753      30.875475      59.95402     
     16300   238.5937       0.0652         5.1158325     -30360.884     -29083.336      31.101753      30.875475      59.976542    
     16400   243.69146      0.0656         5.3024814     -30670.813     -29590.294      31.101753      30.875475      59.999064    
     16500   247.88381      0.066          5.4487156     -31365.379     -30370.842      31.101753      30.875475      60.021586    
     16600   248.13288      0.0664         5.3443482     -30635.649     -30172.639      31.101753      30.875475      60.044108    
     1.6       -28293          31.101753      30.875475      59.458532    
     14100   243.42871      0.0564         5.1024854     -27988.086     -27895.491      31.101753      30.875475      59.481054    
     14200   241.55072      0.0568         5.0147215     -27725.364     -27841.829      31.101753      30.875475      59.503576    
     14300   240.52607      0.0572         5.0682147     -28096.061     -28510.41       31.101753      30.875475      59.526098    
     14400   243.73682      0.0576         5.0455792          17100   242.2182       0.0684         5.3330458     -31503.949     -30624.86       31.101753      30.875475      60.156719    
     17200   241.73378      0.0688         5.3702235     -31240.517     -30842.562      31.101753      30.875475      60.179241    
     17300   242.92165      0.0692         5.3678479     -31209.486     -30385.855      31.101753      30.875475      60.201764    
     17400   246.69586      0.0696         5.3046721     -31141.054     -30416.041      31.101753      30.875475      60.224286    
     17500   244.60812      0.07           5.2868284     -31756.234     -30088.612      31.101753      30.875475      60.246808    
     17600   244.65842      0.0704         5.2586215     -31315.378     -30156.712      31.101753      30.875475      60.26933     
     17700   248.45092      0.0708         5.233005      -30868.351     -29692.998      31.101753      30.875475      60.291852    
     17800   244.81964      0.0712         5.2889624     -31291.361     -29728.962      31.101753      30.875475      60.314374    
     17900   239.79304      0.0716         5.2619127     -31687.157     -29435.529      31.101753      30.875475      60.336897    
     18000   248.09648      0.072          5.1890881     -31440.957     -29639.101      31.101753      30.875475      60.359419    
     18100   242.7329       0.0724         5.1692888     -31872.714     -29338.656      31.101753      30.875475      60.381941    
     18200   245.60964      0.0728         5.1015401     -32174.826     -29135.105      31.101753      30.875475      60.404463    
     18300   241.53781      0.0732         4.9232167     -31652.546     -28331.44       31.101753      30.875475      60.426985    
     18400   246.32033      0.0736         4.8460774     -31118.855     -27986.151      31.101753      30.875475      60.449507    
     18500   245.31223      0.074          4.8341552     -30695.092     -27808.162      31.101753      30.875475      60.47203     
     18600   243.76039      0.0744         4.7675381     -31484.313     -27209.795      31.101753      30.875475      60.494552    
     18700   253.44381      0.0748         4.6282584     -30252.611     -26806.41       31.101753      30.875475      60.517074    
     18800   246.5032       0.0752         4.603276      -30251.086     -25875.366      31.101753      30.875475      60.539596    
     18900   245.75243      0.0756         4.5828214     -29706.176     -25710.742      31.101753      30.875475      60.562118    
     19000   240.9846       0.076          4.4519394     -29406.949     -25271.543      31.101753      30.875475      60.58464     
     19100   244.36547      0.0764         4.2558088     -29034.878     -24361.556      31.101753      30.875475      60.607163    
     19200   242.58106      0.0768         4.079973      -28042.724     -23602.655      31.101753      30.875475      60.629685    
     19300   244.14182      0.0772         4.0415557     -27789.951     -23194.042      31.101753      30.875475      60.652207    
     19400   245.59532      0.0776         3.7912339     -25787.836     -22773.109      31.101753      30.875475      60.674729    
     19500   240.68649      0.078          3.580844      -25371.885     -21797.896      31.101753      30.875475      60.697251    
     19600   247.29121      0.0784         3.345209      -24422.847     -20864.192      31.101753      30.875475      60.719773    
     19700   239.85732      0.0788         3.1079756     -22640.018     -19603.742      31.101753      30.875475      60.742296    
     19800     -30624.86       31.101753      30.875475      60.156719    
     17200   241.73378      0.0688         5.3702235     -31240.517     -30842.562      31.101753      30.875475      60.179241    
     17300   242.92165      0.0692         5.3678479     -31209.486     -30385.855      31.101753      30.875475      60.201764    
     17400   246.69586      0.0696         5.3046721     -31141.054     -30416.041      31.101753      30.875475      60.224286    
     17500   244.60812      0.07           5.2868284          20200   247.05313      0.0808         2.6800166     -19476.271     -17405.828      31.101753      30.875475      60.854906    
     20300   241.15468      0.0812         2.4927118     -18867.449     -16770.962      31.101753      30.875475      60.877429    
     20400   243.98034      0.0816         2.3183836     -17009.888     -15663.432      31.101753      30.875475      60.899951    
     20500   239.59826      0.082          2.2651762     -16903.103     -15622.257      31.101753      30.875475      60.922473    
     20600   244.30336      0.0824         2.1401366     -15518.973     -14877.315      31.101753      30.875475      60.944995    
     20700   245.66663      0.0828         2.0373222     -15000.444     -14065.613      31.101753      30.875475      60.967517    
     20800   244.8932       0.0832         1.996655      -15782.965     -14691.138      31.101753      30.875475      60.99004     
     20900   240.85997      0.0836         2.0280456     -16307.816     -14011.172      31.101753      30.875475      61.012562    
     21000   246.3082       0.084          1.9925356     -15338.704     -12908.556      31.101753      30.875475      61.035084    
     21100   244.70273      0.0844         2.0642973     -15868.423     -12689.078      31.101753      30.875475      61.057606    
     21200   239.82832      0.0848         2.1347849     -15965.936     -12770.293      31.101753      30.875475      61.080128    
     21300   246.29416      0.0852         2.2091155     -16504.139     -13077.459      31.101753      30.875475      61.10265     
     21400   251.22252      0.0856         2.0669057     -15209.753     -12872.89       31.101753      30.875475      61.125173    
     21500   246.20562      0.086          2.0926057     -16023.184     -12732.856      31.101753      30.875475      61.147695    
     21600   243.23012      0.0864         2.0716357     -15452.38      -12566.447      31.101753      30.875475      61.170217    
     21700   245.86963      0.0868         2.0104925     -14975.473     -12018.372      31.101753      30.875475      61.192739    
     21800   240.33614      0.0872         1.7735436     -14418.598     -10852.299      31.101753      30.875475      61.215261    
     21900   241.49719      0.0876         1.7488841     -15222.339     -11028.072      31.101753      30.875475      61.237783    
     22000   246.12979      0.088          1.7284791     -14694.352     -10803.835      31.101753      30.875475      61.260306    
     22100   249.14494      0.0884         1.663779      -14114.074     -9590.6782      31.101753      30.875475      61.282828    
     22200   245.03602      0.0888         1.6974543     -13812.69      -10258.968      31.101753      30.875475      61.30535     
     22300   245.56508      0.0892         1.7218256     -14387.344     -10879.593      31.101753      30.875475      61.327872    
     22400   246.31471      0.0896         1.737858      -14049.186     -10611.35       31.101753      30.875475      61.350394    
     22500   247.63144      0.09           1.7926645     -13279.258     -10584.386      31.101753      30.875475      61.372916    
     22600   239.6338       0.0904         1.8666291     -13973.634     -11510.857      31.101753      30.875475      61.395439    
     22700   248.89149      0.0908         1.7437612     -13304.613     -10583.861      31.101753      30.875475      61.417961    
     22800   242.35207      0.0912         1.7724092     -12974.912     -10830.599      31.101753      30.875475      61.440483    
     22900   2 -17405.828      31.101753      30.875475      60.854906    
     20300   241.15468      0.0812         2.4927118     -18867.449     -16770.962      31.101753      30.875475      60.877429    
     20400   243.98034      0.0816         2.3183836     -17009.888     -15663.432      31.101753      30.875475      60.899951    
     20500   239.59826      0.082          2.2651762     -16903.103     -15622.257      31.101753      30.875475      60.922473    
     20600   244.30336      0.0824         2.1401366          23300   244.12345      0.0932         1.3849055     -11266.17      -10926.044      31.101753      30.875475      61.553094    
     23400   249.39455      0.0936         1.3544223     -11408.673     -10569.706      31.101753      30.875475      61.575616    
     23500   241.135        0.094          1.4772472     -12013.181     -10949.519      31.101753      30.875475      61.598138    
     23600   242.69301      0.0944         1.5672631     -11174.522     -10958.698      31.101753      30.875475      61.62066     
     23700   250.19212      0.0948         1.5707343     -10905.357     -10828.672      31.101753      30.875475      61.643182    
     23800   245.97136      0.0952         1.6435375     -12158.073     -10851.655      31.101753      30.875475      61.665705    
     23900   239.07786      0.0956         1.6129304     -12511.073     -11722.52       31.101753      30.875475      61.688227    
     24000   242.38491      0.096          1.5301067     -11658.515     -10400.265      31.101753      30.875475      61.710749    
     24100   239.14559      0.0964         1.4760296     -11685.599     -10333.739      31.101753      30.875475      61.733271    
     24200   244.63736      0.0968         1.38406       -11831.21      -10320.209      31.101753      30.875475      61.755793    
     24300   245.72377      0.0972         1.3330484     -10227.107     -9851.8148      31.101753      30.875475      61.778316    
     24400   243.47091      0.0976         1.3951487     -10945.309     -10634.072      31.101753      30.875475      61.800838    
     24500   239.80108      0.098          1.2648836     -10592.364     -9303.6877      31.101753      30.875475      61.82336     
     24600   245.56876      0.0984         1.4219604     -10370.04      -9846.0925      31.101753      30.875475      61.845882    
     24700   240.15435      0.0988         1.448054      -11502.519     -10620.83       31.101753      30.875475      61.868404    
     24800   240.94201      0.0992         1.5145815     -11975.097     -10953.347      31.101753      30.875475      61.890926    
     24900   242.82618      0.0996         1.5131951     -11223.485     -9445.7231      31.101753      30.875475      61.913449    
     25000   236.12993      0.1            1.7230948     -11950.977     -10818.738      31.101753      30.875475      61.935971    
     25100   247.3275       0.1004         1.7721561     -13119.483     -11314.623      31.101753      30.875475      61.958493    
     25200   246.34564      0.1008         1.7065545     -12057.741     -11389.54       31.101753      30.875475      61.981015    
     25300   240.55243      0.1012         1.7259985     -11830.717     -11088.549      31.101753      30.875475      62.003537    
     25400   248.09974      0.1016         1.5989281     -12655.506     -11617.984      31.101753      30.875475      62.026059    
     25500   248.4626       0.102          1.6341727     -11513.497     -10753.438      31.101753      30.875475      62.048582    
     25600   247.28131      0.1024         1.5830192     -11595.886     -11290.04       31.101753      30.875475      62.071104    
     25700   237.15907      0.1028         1.5669832     -11184.141     -10722.178      31.101753      30.875475      62.093626    
     25800   247.87788      0.1032         1.5979691     -11492.167     -10959.416      31.101753      30.875475      62.116148    
     25900   240.98498      0.1036         1.5552993     -12075.719     -11098.928      31.101753      30.875475      62.13867     
     26000   238.7926.044      31.101753      30.875475      61.553094    
     23400   249.39455      0.0936         1.3544223     -11408.673     -10569.706      31.101753      30.875475      61.575616    
     23500   241.135        0.094          1.4772472     -12013.181     -10949.519      31.101753      30.875475      61.598138    
     23600   242.69301      0.0944         1.5672631     -11174.522     -10958.698      31.101753      30.875475      61.62066     
     23700   250.19212      0.0948         1.5707343          26400   243.22912      0.1056         1.8970903     -12220.344     -12326.412      31.101753      30.875475      62.251281    
     26500   246.39021      0.106          1.7987972     -11673.682     -11898.733      31.101753      30.875475      62.273803    
     26600   242.43338      0.1064         1.8106331     -12096.451     -12283.135      31.101753      30.875475      62.296325    
     26700   239.61352      0.1068         1.8406412     -12193.048     -12553.971      31.101753      30.875475      62.318848    
     26800   246.10369      0.1072         1.7463376     -11536.577     -10594.283      31.101753      30.875475      62.34137     
     26900   242.26248      0.1076         1.7277317     -11874.342     -11934.969      31.101753      30.875475      62.363892    
     27000   238.93696      0.108          1.6958268     -11718.555     -10615.206      31.101753      30.875475      62.386414    
     27100   239.35499      0.1084         1.7485922     -12093.83      -11577.701      31.101753      30.875475      62.408936    
     27200   247.99432      0.1088         1.7293629     -12145.155     -11665.806      31.101753      30.875475      62.431458    
     27300   243.70993      0.1092         1.8012298     -12484.711     -11931.78       31.101753      30.875475      62.453981    
     27400   245.51469      0.1096         1.9735809     -12734.428     -11925.24       31.101753      30.875475      62.476503    
     27500   242.99345      0.11           1.9954825     -12704.804     -11911.619      31.101753      30.875475      62.499025    
     27600   247.11229      0.1104         1.9319113     -12776.12      -11748.458      31.101753      30.875475      62.521547    
     27700   240.88468      0.1108         1.9792804     -12328.235     -11621.035      31.101753      30.875475      62.544069    
     27800   246.15262      0.1112         2.0175735     -12574.355     -12302.479      31.101753      30.875475      62.566591    
     27900   248.98212      0.1116         1.9727962     -12452.981     -11334.162      31.101753      30.875475      62.589114    
     28000   241.83713      0.112          1.9395317     -12559.484     -11760.617      31.101753      30.875475      62.611636    
     28100   246.81513      0.1124         1.9139035     -12072.295     -11765.461      31.101753      30.875475      62.634158    
     28200   247.12665      0.1128         1.8729503     -11599.581     -11448.031      31.101753      30.875475      62.65668     
     28300   243.33849      0.1132         1.836429      -11379.45      -11019.841      31.101753      30.875475      62.679202    
     28400   241.79311      0.1136         1.7718933     -11594.895     -11895.134      31.101753      30.875475      62.701725    
     28500   251.33763      0.114          1.756716      -11075.694     -10869.813      31.101753      30.875475      62.724247    
     28600   243.81046      0.1144         1.9229555     -12195.537     -12577.698      31.101753      30.875475      62.746769    
     28700   242.91786      0.1148         1.8308975     -11567.088     -11601.843      31.101753      30.875475      62.769291    
     28800   247.11974      0.1152         1.8437046     -10798.444     -11335.661      31.101753      30.875475      62.791813    
     28900   236.00615      0.1156         1.8605309     -12169.195     -12549.886      31.101753      30.875475      62.814335    
     29000   246.6841       0.116          1.9860204     -12751.739     -12661.397      31.101753      30.875475      62.836858    
     29100   245.21229412      31.101753      30.875475      62.251281    
     26500   246.39021      0.106          1.7987972     -11673.682     -11898.733      31.101753      30.875475      62.273803    
     26600   242.43338      0.1064         1.8106331     -12096.451     -12283.135      31.101753      30.875475      62.296325    
     26700   239.61352      0.1068         1.8406412     -12193.048     -12553.971      31.101753      30.875475      62.318848    
     26800   246.10369      0.1072         1.7463376          29500   240.06907      0.118          1.9078741     -12270.349     -12623.675      31.101753      30.875475      62.949468    
     29600   245.55897      0.1184         1.9103995     -11661.788     -12141.645      31.101753      30.875475      62.971991    
     29700   242.7278       0.1188         1.970885      -12446.116     -12326.8        31.101753      30.875475      62.994513    
     29800   240.12029      0.1192         1.9564158     -12437.241     -11974.952      31.101753      30.875475      63.017035    
     29900   238.00706      0.1196         1.73695       -12089.66      -10649.482      31.101753      30.875475      63.039557    
     30000   242.35734      0.12           1.8361057     -12267.655     -11815.721      31.101753      30.875475      63.062079    
     30100   240.48141      0.1204         1.6592145     -11216.373     -10780.895      31.101753      30.875475      63.084601    
     30200   237.70496      0.1208         1.8066481     -11715.583     -11219.132      31.101753      30.875475      63.107124    
     30300   242.61687      0.1212         1.7105856     -12081.635     -10702.142      31.101753      30.875475      63.129646    
     30400   244.66294      0.1216         1.6636956     -12029.141     -10921.493      31.101753      30.875475      63.152168    
     30500   239.70447      0.122          1.5210168     -11539.928     -10510.586      31.101753      30.875475      63.17469     
     30600   246.16371      0.1224         1.5085658     -12095.967     -10759.223      31.101753      30.875475      63.197212    
     30700   247.0889       0.1228         1.427197      -10630.513     -9243.141       31.101753      30.875475      63.219734    
     30800   240.7644       0.1232         1.3378003     -10333.827     -8902.9337      31.101753      30.875475      63.242257    
     30900   240.92915      0.1236         1.4035213     -10723.53      -9169.6608      31.101753      30.875475      63.264779    
     31000   245.81636      0.124          1.3994761     -10720.745     -9872.4624      31.101753      30.875475      63.287301    
     31100   243.64388      0.1244         1.3829491     -10722.858     -9711.3258      31.101753      30.875475      63.309823    
     31200   239.63417      0.1248         1.5067095     -11796.475     -9804.6775      31.101753      30.875475      63.332345    
     31300   244.68969      0.1252         1.4720376     -11164.241     -10566.839      31.101753      30.875475      63.354867    
     31400   240.52486      0.1256         1.5821559     -11217.468     -10899.142      31.101753      30.875475      63.37739     
     31500   245.70536      0.126          1.6775113     -12031.643     -10948.172      31.101753      30.875475      63.399912    
     31600   245.73002      0.1264         1.5806246     -11600.926     -10741.884      31.101753      30.875475      63.422434    
     31700   245.4881       0.1268         1.5184026     -11326.849     -10184.345      31.101753      30.875475      63.444956    
     31800   239.18877      0.1272         1.4616993     -10677.588     -10307.337      31.101753      30.875475      63.467478    
     31900   247.87131      0.1276         1.2887799     -9324.9688     -9754.5872      31.101753      30.875475      63.490001    
     32000   247.59438      0.128          1.2035383     -9114.6767     -9780.7861      31.101753      30.875475      63.512523    
     32100   243.4812       0.1284         1.0844262     -9458.2251     -9425.0239      31.101753      30.875475      63.535045    
     32200   236.05686         31.101753      30.875475      62.949468    
     29600   245.55897      0.1184         1.9103995     -11661.788     -12141.645      31.101753      30.875475      62.971991    
     29700   242.7278       0.1188         1.970885      -12446.116     -12326.8        31.101753      30.875475      62.994513    
     29800   240.12029      0.1192         1.9564158     -12437.241     -11974.952      31.101753      30.875475      63.017035    
     29900   238.00706      0.1196         1.73695            32600   238.7501       0.1304         1.2936724     -9823.3755     -10818.181      31.101753      30.875475      63.647656    
     32700   241.20386      0.1308         1.3790179     -10705.671     -10279.419      31.101753      30.875475      63.670178    
     32800   247.52576      0.1312         1.4412756     -10319.842     -10367.475      31.101753      30.875475      63.6927      
     32900   245.35318      0.1316         1.5537168     -10784.48      -10674.636      31.101753      30.875475      63.715222    
     33000   241.25354      0.132          1.36988       -10208.344     -10046.39       31.101753      30.875475      63.737744    
     33100   248.94705      0.1324         1.33096       -10219.869     -10335.889      31.101753      30.875475      63.760267    
     33200   242.27463      0.1328         1.3637951     -10125.409     -9580.9123      31.101753      30.875475      63.782789    
     33300   241.54396      0.1332         1.2061399     -9531.846      -8969.1521      31.101753      30.875475      63.805311    
     33400   234.27222      0.1336         1.2365803     -8930.4726     -9126.6907      31.101753      30.875475      63.827833    
     33500   244.10552      0.134          1.1537702     -9121.2929     -8519.1896      31.101753      30.875475      63.850355    
     33600   243.33311      0.1344         1.0376114     -8804.7064     -9155.4872      31.101753      30.875475      63.872877    
     33700   244.25476      0.1348         1.1573842     -9461.4496     -9664.2597      31.101753      30.875475      63.8954      
     33800   242.12883      0.1352         1.2047647     -9343.1949     -9634.7208      31.101753      30.875475      63.917922    
     33900   248.06701      0.1356         1.2728445     -9547.5215     -9243.6638      31.101753      30.875475      63.940444    
     34000   247.60075      0.136          1.3158454     -10015.899     -9274.0006      31.101753      30.875475      63.962966    
     34100   241.19612      0.1364         1.2678412     -9770.9277     -9088.6967      31.101753      30.875475      63.985488    
     34200   242.36136      0.1368         1.3096059     -9176.9108     -9149.5184      31.101753      30.875475      64.00801     
     34300   245.07057      0.1372         1.3194615     -9454.2172     -9331.2804      31.101753      30.875475      64.030533    
     34400   239.59078      0.1376         1.4163598     -9821.639      -9676.3422      31.101753      30.875475      64.053055    
     34500   244.36659      0.138          1.2933428     -9470.4217     -8772.0122      31.101753      30.875475      64.075577    
     34600   243.36672      0.1384         1.1836679     -8854.3225     -8370.1037      31.101753      30.875475      64.098099    
     34700   242.91398      0.1388         1.0588592     -7896.2523     -8591.5463      31.101753      30.875475      64.120621    
     34800   245.58481      0.1392         1.1202443     -8464.9557     -8922.4762      31.101753      30.875475      64.143143    
     34900   245.00469      0.1396         1.1819972     -8972.748      -9333.3902      31.101753      30.875475      64.165666    
     35000   240.92856      0.14           1.2213888     -8925.7902     -9737.1696      31.101753      30.875475      64.188188    
     35100   245.62964      0.1404         1.2312228     -9069.5851     -9662.6373      31.101753      30.875475      64.21071     
     35200   243.81607      0.1408         1.3438108     -9616.1409     -10294.665      31.101753      30.875475      64.233232    
     35300   235.83089      0. 31.101753      30.875475      63.647656    
     32700   241.20386      0.1308         1.3790179     -10705.671     -10279.419      31.101753      30.875475      63.670178    
     32800   247.52576      0.1312         1.4412756     -10319.842     -10367.475      31.101753      30.875475      63.6927      
     32900   245.35318      0.1316         1.5537168     -10784.48      -10674.636      31.101753      30.875475      63.715222    
     33000   241.25354      0.132          1.36988            35700   244.27594      0.1428         1.5138454     -10555.363     -10771.754      31.101753      30.875475      64.345843    
     35800   244.73833      0.1432         1.468246      -9664.2529     -10582.008      31.101753      30.875475      64.368365    
     35900   242.84846      0.1436         1.3396054     -10299.874     -10565.199      31.101753      30.875475      64.390887    
     36000   242.73718      0.144          1.2903165     -9642.2286     -10039.553      31.101753      30.875475      64.41341     
     36100   240.03308      0.1444         1.2624946     -10135.545     -9648.1538      31.101753      30.875475      64.435932    
     36200   241.13836      0.1448         1.2365705     -8868.394      -9072.125       31.101753      30.875475      64.458454    
     36300   241.25928      0.1452         1.2846491     -9691.5109     -9799.8089      31.101753      30.875475      64.480976    
     36400   252.20262      0.1456         1.2989612     -9690.2684     -9288.6213      31.101753      30.875475      64.503498    
     36500   244.16957      0.146          1.4207148     -10582.164     -10189.388      31.101753      30.875475      64.52602     
     36600   241.66893      0.1464         1.4565308     -9477.6972     -10183.31       31.101753      30.875475      64.548543    
[...]
     60900   242.52807      0.2436         0.57615282         63600   236.09571      0.2544         0.70613028    -5190.687      -5958.5974      31.101753      30.875475      70.629529    
     63700   244.82801      0.2548         0.50942198    -4253.5294     -4934.2087      31.101753      30.875475      70.652051    
     63800   250.96332      0.2552         0.49922401    -3669.7902     -4835.6983      31.101753      30.875475      70.674573    
     63900   243.15667      0.2556         0.52851685    -4272.2971     -5319.4801      31.101753      30.875475      70.697095    
     64000   245.88551      0.256          0.58488298    -5000.3756     -4929.4653      31.101753      30.875475      70.719617    
     64100   248.95729      0.2564         0.64196586    -5024.1216     -5361.7923      31.101753      30.875475      70.74214     
     64200   239.61275      0.2568         0.57465933    -4682.8792     -5151.7191      31.101753      30.875475      70.764662    
     64300   242.18259      0.2572         0.61523392    -4921.3801     -5127.6742      31.101753      30.875475      70.787184    
     64400   249.43956      0.2576         0.67992588    -5329.5848     -5093.7674      31.101753      30.875475      70.809706    
     64500   243.59015      0.258          0.75719508    -5341.4258     -5415.9921      31.101753      30.875475      70.832228    
     64600   248.98231      0.2584         0.63958333    -5160.2037     -5150.6639      31.101753      30.875475      70.85475     
     64700   246.34795      0.2588         0.64812009    -5185.8375     -4982.5109      31.101753      30.875475      70.877273    
     64800   243.72246      0.2592         0.54940984    -4933.0413     -5356.8611      31.101753      30.875475      70.899795    
     64900   240.65019      0.2596         0.65545861    -4525.2016     -5709.0827      31.101753      30.875475      70.922317    
     65000   249.03106      0.26           0.5748003     -4443.5676     -5613.0827      31.101753      30.875475      70.944839    
     65100   240.38001      0.2604         0.55642608    -4265.8775     -5359.9689      31.101753      30.875475      70.967361    
     65200   240.8844       0.2608         0.6961351     -4654.4321     -5928.7148      31.101753      30.875475      70.989884    
     65300   240.79743      0.2612         0.66760582    -4056.6553     -5496.8812      31.101753      30.875475      71.012406    
     65400   244.56378      0.2616         0.70064388    -4397.8481     -5921.6661      31.101753      30.875475      71.034928    
     65500   240.7036       0.262          0.77194529    -4655.746      -6460.3591      31.101753      30.875475      71.05745     
     65600   245.15886      0.2624         0.78294511    -4425.726      -5641.3607      31.101753      30.875475      71.079972    
     65700   239.75413      0.2628         0.80583092    -5151.7668     -6794.947       31.101753      30.875475      71.102494    
     65800   244.48273      0.2632         0.7660156     -4283.0991     -6511.6683      31.101753      30.875475      71.125017    
     65900   243.49673      0.2636         0.71800314    -3418.2084     -6069.5446      31.101753      30.875475      71.147539    
     66000   239.39794      0.264          0.76907389    -5416.2129     -6788.1433      31.101753      30.875475      71.170061    
     66100   246.17061      0.2644         0.63058251    -3519.3527     -5452.3135      31.101753      30.875475      71.192583    
     66200   246.25244      0.2648         0.67221435    -4118.5485     -5707.8898      31.101753      30.875475      71.215105    
     66300   243.75359      0.2652         0.70334851    -3901.6658       
     63700   244.82801      0.2548         0.50942198    -4253.5294     -4934.2087      31.101753      30.875475      70.652051    
     63800   250.96332      0.2552         0.49922401    -3669.7902     -4835.6983      31.101753      30.875475      70.674573    
     63900   243.15667      0.2556         0.52851685    -4272.2971     -5319.4801      31.101753      30.875475      70.697095    
     64000   245.88551      0.256          0.58488298         66700   245.27909      0.2668         0.76006297    -5589.556      -5940.4089      31.101753      30.875475      71.327716    
     66800   243.29867      0.2672         0.80499217    -4533.1503     -5877.8799      31.101753      30.875475      71.350238    
     66900   247.1016       0.2676         0.79153901    -4558.6363     -5671.5215      31.101753      30.875475      71.37276     
     67000   245.1373       0.268          0.91740826    -5613.4158     -6695.1122      31.101753      30.875475      71.395283    
     67100   243.55295      0.2684         0.80818096    -4930.2408     -6118.9321      31.101753      30.875475      71.417805    
     67200   244.33408      0.2688         0.68511736    -5000.6393     -5707.4866      31.101753      30.875475      71.440327    
     67300   240.49722      0.2692         0.66348112    -4829.9298     -5372.04        31.101753      30.875475      71.462849    
     67400   242.5903       0.2696         0.72242526    -4913.7625     -5726.4102      31.101753      30.875475      71.485371    
     67500   243.33747      0.27           0.67762233    -5153.9857     -6095.8944      31.101753      30.875475      71.507893    
     67600   241.00459      0.2704         0.71281585    -5423.7894     -6304.5031      31.101753      30.875475      71.530416    
     67700   245.2104       0.2708         0.82194297    -4578.5602     -6008.3067      31.101753      30.875475      71.552938    
     67800   240.68808      0.2712         0.85422582    -5769.6149     -6868.0375      31.101753      30.875475      71.57546     
     67900   246.88625      0.2716         0.78479072    -5061.8558     -6746.0254      31.101753      30.875475      71.597982    
     68000   247.14147      0.272          0.79642951    -4995.5543     -6590.9178      31.101753      30.875475      71.620504    
     68100   239.96413      0.2724         0.79373219    -5226.8827     -7425.9719      31.101753      30.875475      71.643026    
     68200   245.23249      0.2728         0.68250668    -4749.4777     -6560.5508      31.101753      30.875475      71.665549    
     68300   244.14047      0.2732         0.64785896    -4166.2998     -6394.0205      31.101753      30.875475      71.688071    
     68400   243.10548      0.2736         0.67532144    -4748.7837     -6929.8539      31.101753      30.875475      71.710593    
     68500   243.2803       0.274          0.65749375    -3919.5258     -6270.2537      31.101753      30.875475      71.733115    
     68600   245.50198      0.2744         0.67808461    -4531.5803     -6944.7865      31.101753      30.875475      71.755637    
     68700   238.34833      0.2748         0.7719659     -4662.9201     -7253.6403      31.101753      30.875475      71.778159    
     68800   245.2452       0.2752         0.73465329    -4465.9538     -6927.5496      31.101753      30.875475      71.800682    
     68900   241.89023      0.2756         0.8822127     -5109.7686     -7577.2376      31.101753      30.875475      71.823204    
     69000   239.02845      0.276          0.84581807    -5363.658      -6935.7565      31.101753      30.875475      71.845726    
     69100   248.54019      0.2764         0.76544888    -5139.758      -6520.9852      31.101753      30.875475      71.868248    
     69200   244.83085      0.2768         0.81107927    -4857.3158     -7112.5275      31.101753      30.875475      71.89077     
     69300   243.8465       0.2772         0.76605412    -5204.9974     -6841.678       31.101753      30.875475      71.913293    
     69400   248.31571      0.2776         0.64866793    -4386.1962     -5
     66800   243.29867      0.2672         0.80499217    -4533.1503     -5877.8799      31.101753      30.875475      71.350238    
     66900   247.1016       0.2676         0.79153901    -4558.6363     -5671.5215      31.101753      30.875475      71.37276     
     67000   245.1373       0.268          0.91740826    -5613.4158     -6695.1122      31.101753      30.875475      71.395283    
     67100   243.55295      0.2684         0.80818096    -4930.2408     -6118.9321      31.101753      30.875475      71.417805    
     67200   244.33408      0.2688         0.68511736         69900   240.79586      0.2796         0.51081467    -3572.2729     -5623.8959      31.101753      30.875475      72.048426    
     70000   251.139        0.28           0.65957529    -4379.9945     -6177.9364      31.101753      30.875475      72.070948    
     70100   242.16575      0.2804         0.75256672    -4847.0395     -6255.5369      31.101753      30.875475      72.09347     
     70200   242.02261      0.2808         0.84197907    -5282.0669     -7035.3472      31.101753      30.875475      72.115992    
     70300   247.26428      0.2812         0.8163674     -5033.1292     -6670.8282      31.101753      30.875475      72.138514    
     70400   243.66474      0.2816         0.85148023    -5024.6987     -6714.8847      31.101753      30.875475      72.161036    
     70500   240.0354       0.282          0.75652625    -5424.8777     -6988.8127      31.101753      30.875475      72.183559    
     70600   245.43217      0.2824         0.78651059    -4892.5367     -7043.279       31.101753      30.875475      72.206081    
     70700   250.72667      0.2828         0.61768627    -3753.731      -5884.2151      31.101753      30.875475      72.228603    
     70800   244.05841      0.2832         0.44958991    -4617.3157     -5481.1854      31.101753      30.875475      72.251125    
     70900   241.27547      0.2836         0.41477352    -3528.9625     -5241.523       31.101753      30.875475      72.273647    
     71000   240.73116      0.284          0.35960972    -3512.479      -4849.7234      31.101753      30.875475      72.296169    
     71100   245.40109      0.2844         0.37511582    -3930.0578     -4962.2256      31.101753      30.875475      72.318692    
     71200   240.62643      0.2848         0.48411636    -4605.2176     -5548.914       31.101753      30.875475      72.341214    
     71300   251.19328      0.2852         0.41787789    -3740.3048     -5041.6942      31.101753      30.875475      72.363736    
     71400   242.00251      0.2856         0.45193704    -4237.7422     -6001.4208      31.101753      30.875475      72.386258    
     71500   238.91652      0.286          0.59380277    -5120.4558     -6014.2699      31.101753      30.875475      72.40878     
     71600   245.34103      0.2864         0.61404756    -5028.3416     -6271.5135      31.101753      30.875475      72.431302    
     71700   246.85601      0.2868         0.56248757    -4201.0296     -6060.02        31.101753      30.875475      72.453825    
     71800   238.75358      0.2872         0.51870917    -4297.6317     -6011.2244      31.101753      30.875475      72.476347    
     71900   244.54111      0.2876         0.35790516    -4066.0238     -5491.2241      31.101753      30.875475      72.498869    
     72000   247.23571      0.288          0.27640727    -3808.5691     -5215.4751      31.101753      30.875475      72.521391    
     72100   242.2011       0.2884         0.18995475    -3191.3054     -5265.3395      31.101753      30.875475      72.543913    
     72200   245.46789      0.2888         0.12923699    -2562.0329     -4835.754       31.101753      30.875475      72.566435    
     72300   244.98659      0.2892         0.19789098    -3422.4632     -4999.9425      31.101753      30.875475      72.588958    
     72400   239.95832      0.2896         0.19394473    -3503.4848     -5306.5972      31.101753      30.875475      72.61148     
     72500   246.01161      0.29           0.27126272    -2559.3844     -4570.  69900   240.79586      0.2796         0.51081467    -3572.2729     -5623.8959      31.101753      30.875475      72.048426    
     70000   251.139        0.28           0.65957529    -4379.9945     -6177.9364      31.101753      30.875475      72.070948    
     70100   242.16575      0.2804         0.75256672    -4847.0395     -6255.5369      31.101753      30.875475      72.09347     
     70200   242.02261      0.2808         0.84197907    -5282.0669     -7035.3472      31.101753      30.875475      72.115992    
     70300   247.26428      0.2812         0.8163674          73000   233.9155       0.292          0.54607157    -4702.0831     -5675.4809      31.101753      30.875475      72.746613    
     73100   244.68225      0.2924         0.45845328    -4697.6651     -4965.0119      31.101753      30.875475      72.769135    
     73200   241.07549      0.2928         0.40203978    -4167.989      -4459.4461      31.101753      30.875475      72.791657    
     73300   237.3756       0.2932         0.35947609    -4352.3064     -3893.2653      31.101753      30.875475      72.814179    
     73400   239.70284      0.2936         0.31125495    -4975.5982     -4467.5779      31.101753      30.875475      72.836702    
     73500   244.356        0.294          0.22915157    -3071.147      -3433.3344      31.101753      30.875475      72.859224    
     73600   237.85535      0.2944         0.32608035    -4293.5645     -3851.3138      31.101753      30.875475      72.881746    
     73700   242.12332      0.2948         0.33107868    -4406.9413     -3844.3077      31.101753      30.875475      72.904268    
     73800   245.06264      0.2952         0.29053449    -4357.1717     -3294.5841      31.101753      30.875475      72.92679     
     73900   244.58567      0.2956         0.45004149    -4857.956      -4370.9514      31.101753      30.875475      72.949312    
     74000   245.60759      0.296          0.46770693    -4978.0886     -4259.7451      31.101753      30.875475      72.971835    
     74100   246.18185      0.2964         0.61523243    -5507.7611     -4758.3832      31.101753      30.875475      72.994357    
     74200   235.82832      0.2968         0.62327305    -5421.2439     -4681.6098      31.101753      30.875475      73.016879    
     74300   246.22689      0.2972         0.55548653    -4569.9071     -4789.3972      31.101753      30.875475      73.039401    
     74400   253.77004      0.2976         0.53694154    -4629.5572     -4503.3908      31.101753      30.875475      73.061923    
     74500   242.84294      0.298          0.49654348    -4464.0245     -5156.0795      31.101753      30.875475      73.084445    
     74600   243.49146      0.2984         0.42799537    -3720.9147     -4584.6049      31.101753      30.875475      73.106968    
     74700   245.5245       0.2988         0.33391795    -4846.6729     -4843.6765      31.101753      30.875475      73.12949     
     74800   245.36078      0.2992         0.33443897    -4233.855      -4627.4106      31.101753      30.875475      73.152012    
     74900   242.92243      0.2996         0.37560951    -4263.4319     -4653.6425      31.101753      30.875475      73.174534    
     75000   244.26033      0.3            0.54591884    -4726.9661     -4710.8441      31.101753      30.875475      73.197056    
Loop time of 206.879 on 4 procs for 75000 steps with 4236 atoms

Performance: 62.645 ns/day, 0.383 hours/ns, 362.531 timesteps/s, 1.536 Matom-step/s
103.5% CPU use with 4 MPI tasks x 1 OpenMP threads

MPI task timing breakdown:
Section |  min time  |  avg time  |  max time  |%varavg| %total
---------------------------------------------------------------
Pair    | 122.43     | 155.48     | 193.26     | 257.9 | 75.16
Neigh   | 0.92927    | 1.8857     | 3.1202     |  68.6 |  0.91
Comm    | 4.6747     | 40.117     | 77.702     | 474.0 | 19.39
Output  | 2.3304     | 2.87       | 3.3812     |  22.7 |  1.39
Modify  | 1.8003     | 5.6028     | 16.7       | 270.7 |  2.71
Other   |            | 0.923      |            |       |  0.45

Nlocal:           1059 ave        1640 max         519 min
Histogram: 1 0 1 0 0 0 1 0 0 1
Nghost:        2985.75 ave        4559 max        1228 min
Histogram: 1 0 1 0 0 0 0 0 1 1
Neighs:        92645.5 ave      179457 max       28394 min
Histogram: 1 1 0 0 0 1 0 0 0 1

Total # of neighbors = 370582
Ave neighs/atom = 87.483947
Neighbor list builds = 1219
Dangerous builds = 0
Total wall time: 0:04:10
300   237.3756       0.2932         0.35947609    -4352.3064     -3893.2653      31.101753      30.875475      72.814179    
     73400   239.70284      0.2936         0.31125495    -4975.5982     -4467.5779      31.101753      30.875475      72.836702    
     73500   244.356        0.294          0.22915157    -3071.147      -3433.3344      31.101753      30.875475      72.859224    
     73600   237.85535      0.2944         0.32608035    -4293.5645     -3851.3138      31.101753      30.875475      72.881746    
     73700   242.12332      0.2948         0.33107868    -4406.9413     -3844.3077      31.101753      30.875475      72.904268    
     73800   245.06264      0.2952         0.29053449    -4357.1717     -3294.5841      31.101753      30.875475      72.92679     
     73900   244.58567      0.2956         0.45004149    -4857.956      -4370.9514      31.101753      30.875475      72.949312    
     74000   245.60759      0.296          0.46770693    -4978.0886     -4259.7451      31.101753      30.875475      72.971835    
     74100   246.18185      0.2964         0.61523243    -5507.7611     -4758.3832      31.101753      30.875475      72.994357    
     74200   235.82832      0.2968         0.62327305    -5421.2439     -4681.6098      31.101753      30.875475      73.016879    
     74300   246.22689      0.2972         0.55548653    -4569.9071     -4789.3972      31.101753      30.875475      73.039401    
     74400   253.77004      0.2976         0.53694154    -4629.5572     -4503.3908      31.101753      30.875475      73.061923    
     74500   242.84294      0.298          0.49654348    -4464.0245     -5156.0795      31.101753      30.875475      73.084445    
     74600   243.49146      0.2984         0.42799537    -3720.9147     -4584.6049      31.101753      30.875475      73.106968    
     74700   245.5245       0.2988         0.33391795    -4846.6729     -4843.6765      31.101753      30.875475      73.12949     
     74800   245.36078      0.2992         0.33443897    -4233.855      -4627.4106      31.101753      30.875475      73.152012    
     74900   242.92243      0.2996         0.37560951    -4263.4319     -4653.6425      31.101753      30.875475      73.174534    
     75000   244.26033      0.3            0.54591884    -4726.9661     -4710.8441      31.101753      30.875475      73.197056    
Loop time of 206.879 on 4 procs for 75000 steps with 4236 atoms

Performance: 62.645 ns/day, 0.383 hours/ns, 362.531 timesteps/s, 1.536 Matom-step/s
103.5% CPU use with 4 MPI tasks x 1 OpenMP threads

MPI task timing breakdown:
Section |  min time  |  avg time  |  max time  |%varavg| %total
---------------------------------------------------------------
Pair    | 122.43     | 155.48     | 193.26     | 257.9 | 75.16
Neigh   | 0.92927    | 1.8857     | 3.1202     |  68.6 |  0.91
Comm    | 4.6747     | 40.117     | 77.702     | 474.0 | 19.39
Output  | 2.3304     | 2.87       | 3.3812     |  22.7 |  1.39
Modify  | 1.8003     | 5.6028     | 16.7       | 270.7 |  2.71
Other   |            | 0.923      |            |       |  0.45

Nlocal:           1059 ave        1640 max         519 min
Histogram: 1 0 1 0 0 0 1 0 0 1
Nghost:        2985.75 ave        4559 max        1228 min
Histogram: 1 0 1 0 0 0 0 0 1 1
Neighs:        92645.5 ave      179457 max       28394 min
Histogram: 1 1 0 0 0 1 0 0 0 1

Total # of neighbors = 370582
Ave neighs/atom = 87.483947
Neighbor list builds = 1219
Dangerous builds = 0
Total wall time: 0:04:10
