(written by ASE)

4263 atoms
2 atom types

0.0      31.066736431430968  xlo xhi
0.0      31.066736431430968  ylo yhi
0.0      63.730000000000004  zlo zhi

Atoms # atomic

     1   1  -0.0058736342200309925   0.0081579119296088833      33.338340071449096
     2   1      1.4702149083977472        1.35261891492932      35.406054271016366
     3   1    0.048947817175426261    0.062045300583287978      37.452282623813247
     4   1      1.4883737931798795       1.481017116246073      39.457734952737496
     5   1    0.029856049684914537    0.015376162502493244      41.486886132300825
     6   1      1.4098266716498957      1.3878789980351922      43.484528768923994
     7   1   -0.090054395577281982   -0.040199588716073022      45.552658662159217
     8   1      1.4493128052997022      1.3823104534984689      47.658675606518358
     9   1   -0.012149784151571356    0.054877704944624808      49.520326111906549
    10   1      1.3371332955777953       1.526458614260225      51.643487973870762
    11   1   -0.016385452646956726    0.048815427061049577       53.62675849869121
    12   1      1.3874423370122433      1.3710348114475446      55.650320386031495
    13   1   -0.010164521717034702   -0.051009704513491495      57.623239263182647
    14   1      1.3640656534626392       1.399580483590787      59.644955947753949
    15   1     0.16414446440653632    0.031389635331097954      61.743921543737983
    16   1    -0.12270072032713593      2.8137613738137066      33.383648760952056
    17   1      1.4212482705231986      4.2268066008461069      35.471575191761026
    18   1    0.053528412485011591      2.7954495440949247      37.512539155937461
    19   1      1.4550352056031459      4.2772069859577462       39.45632233750586
    20   1   -0.022901705429835436      2.7798383937930633      41.455094704824027
    21   1      1.4297129484304245      4.1803710669133576      43.463398999605424
    22   1    0.049867692254803982      2.9130134184811109      45.541411801528923
    23   1      1.3714148056042998      4.2005925754042481      47.554273080461634
    24   1     0.10875346474288741      2.8373586468089642      49.576600364619395
    25   1      1.4153606949262956      4.2379205184207933      51.581327413073318
    26   1   -0.051655131167670246      2.8372574349914195      53.602617060264215
    27   1       1.434634730889691      4.1779535740148441      55.741986084945133
    28   1    0.050261685043424799      2.7843863242702622      57.676963402562173
    29   1      1.4407158359595993       4.286282283163998      59.692528326088542
    30   1    -0.02427314446208953      2.7780659223517166       61.71572284911899
    31   1     0.02591328905370939      5.6131782466381059      33.357562563890916
    32   1      1.4331956576924159      7.0769064804316892      35.375009017211305
    33   1   -0.021760322088506166      5.6846569332992161       37.49720921973362
    34   1      1.4418122762839993      7.0406000825744153      39.529894380409729
    35   1   -0.028066054709476124      5.7042650901127043      41.446641694438327
    36   1      1.3981395410204902      7.0648090662454113      43.538049903322815
    37   1   -0.015976751682747675        5.68601740213008      45.475631009848257
    38   1      1.3928012033570285      7.1138348746656002      47.570967808601125
    39   1    0.039316974219899811      5.7096591007201702      49.558043694282965
    40   1      1.4401307578117641      7.0636595083085432      51.649350952179823
    41   1   -0.070525430127436103      5.7360498829911464      53.577565147922982
    42   1      1.4256933723629628       7.095445392649478       55.68289755853727
    43   1    0.046168108632709981        5.60585578125262       57.65989944801504
    44   1      1.4692315313684738      7.0286971517682453      59.641539679139903
    45   1    0.022007563209403169      5.6215529956214905      61.765990322475417
    46   1    0.084625953932686321      8.4946536514971367       33.40236413164579
    47   1      1.4112710591882156      9.8960223978926525      35.484163626152068
    48   1   -0.041255898327070384      8.4542413006720025      37.492958825258867
    49   1      1.3693060131764703      9.8349541914923524      39.508223068811049
    50   1    0.048379000907020797      8.5419936093416418      41.581658169765532
    51   1      1.4586991345164091      9.8771518597256271      43.516197617348006
    52   1     -0.0224866567597845      8.5675378377238491       45.48856388181818
    53   1      1.4065572061806566      9.9501861194430248      47.515721196265027
    54   1    -0.10528938699850937      8.5582499445818332      49.585616399712322
    55   1      1.4674789718676982      9.8477492910551128      51.629425262362858
    56   1   -0.034465722459972259      8.4567943904630756      53.535171271379888
    57   1      1.3592665715934729      9.9124705094946037       55.62849526965072
    58   1   -0.070700542929401797      8.4133536741456094      57.649008130146548
    59   1      1.4293882491069538      9.9437718963686716      59.648202300935871
    60   1  -0.0046523525885996493      8.4380377779763123      61.695792186745955
    61   1    0.087040594252991182      11.327691417886752      33.437783009443436
    62   1      1.4370304999932033      12.657904483901284      35.383404826466595
    63   1   0.0040267484902827937      11.299544089813589      37.393077892178979
    64   1      1.4491579957018492      12.768627157626934      39.495554037444961
    65   1   -0.015071811743458514      11.340151341855234      41.552640011100209
    66   1      1.3851458072725513      12.686339570549046      43.426745636920295
    67   1    0.026554998314803263      11.324955844053724      45.532734173558858
    68   1      1.4022725777026492      12.739873102142868      47.477014631755523
    69   1   -0.017811343330441765      11.270220858356069      49.618672878213012
    70   1      1.4617858191334796      12.685059462460771      51.740381697280839
    71   1  -0.0059125614476231957      11.243988279706489      53.609444820852602
    72   1      1.4275420550035558      12.712588831416126       55.70051090078659
    73   1    0.090774566275870827       11.27136725951843      57.620874808317851
    74   1      1.4610563417565239      12.698628131846299      59.710206481223111
    75   1   -0.055896047775132712      11.256988320050295      61.721696055461543
    76   1   -0.050076069651997068      14.104287394339629      33.434328661465081
    77   1      1.3769118939453475      15.485686498814429       35.36133410895733
    78   1   -0.071972719775073343      14.139563646584181      37.329908859996124
    79   1      1.3017222145820941      15.507671824781871      39.387669911686189
    80   1    0.097826898201474485      14.070232613674241      41.475967753086564
    81   1      1.4012551349107301      15.448347030180496      43.407603440116908
    82   1   -0.061426387870582438      14.103894852296854      45.507239226151079
    83   1      1.3430231742710002      15.516056631673326      47.628218816163418
    84   1   -0.049464877223946907      14.133712911080909      49.516349253148192
    85   1      1.4251138925092066      15.463684177907139      51.708399392955876
    86   1   -0.098434782441753077      14.097157693891559      53.655690050107353
    87   1      1.3655004135346491      15.559857692155148      55.714846692586157
    88   1   0.0011490437786497519      14.164083214868809      57.682219954886435
    89   1      1.4263245071777373      15.516548358752891      59.825284257554515
    90   1   -0.068491263486920181      14.176258697563897      61.759977676300799
    91   1    0.077736993328753889      16.968449328057183      33.417449829489456
    92   1       1.333733263763621      18.340021813540474      35.409078535424293
    93   1     0.01381284990222034      16.935301958551953      37.467131274625991
    94   1       1.370183535431402      18.382384675892112      39.499761951934417
    95   1  -0.0044741775911990639      16.970554030959679      41.562899414937846
    96   1      1.4264853542692664      18.300228392224973      43.490890882689612
    97   1    0.016527054207484158      16.938713735445248      45.625333456797073
    98   1      1.4383469632235357      18.362567675288989      47.437552932797033
    99   1   0.0023922190556016974      16.976763728302576      49.642886424599958
   100   1      1.4199070080836533      18.377964735605168      51.538602555609955
   101   1    0.037859137026770427      16.922539207964306      53.644205377275384
   102   1      1.3206474567166899      18.342464184876714      55.602270159787487
   103   1    -0.05464835235483121      16.907116098069807      57.620035200001929
   104   1      1.4458631471118721      18.445324097105747      59.660434816448188
   105   1   -0.049935677776951196      16.865126357012851      61.704728508690422
   106   1    0.020948191554622762      19.721972255658692      33.410829659400633
   107   1       1.319447775055911      21.160243249737494      35.379215583580383
   108   1    0.019822411954606156      19.720987860815278      37.472594100620427
   109   1      1.4021133322865649      21.182128001949092      39.410285999798774
   110   1    -0.16172809280865375      19.791036979043955      41.557071784073287
   111   1      1.4226210528356198       21.19343569501466      43.560959998721003
   112   1    0.066274067722602456      19.774623017138879       45.47683198708593
   113   1      1.4323159654436595      21.120482824583199      47.522113356120762
   114   1    0.065060753016050535      19.780338687717258      49.545219076133407
   115   1      1.4190292331825778      21.126151427932729      51.613590217386275
   116   1    0.045638876325203935      19.753526912713955      53.579954890797843
   117   1      1.4770276911320344      21.234914946132122      55.570802854029978
   118   1    0.032888224624064509       19.63728111073803      57.715541514002211
   119   1      1.3418248086382376      21.143437710609284      59.657421496975289
   120   1   -0.076961447985935794      19.762877668795923      61.744795979290586
   121   1    0.026564757365511706      22.513817299299518       33.37151374466864
   122   1       1.491462110939092      24.027553595722335      35.368168584418029
   123   1    0.036812166963708003       22.60505858462777      37.424033291304731
   124   1      1.4682398048055916      23.943192269168623      39.504711611883252
   125   1   -0.015919550393271482      22.519050919679085      41.463185192266224
   126   1       1.416115650225094      23.949614181912803      43.408119443617998
   127   1   0.0045562387926612099      22.605155880474737      45.477863024439095
   128   1      1.4015820080053949      23.879607085231999       47.61094724450119
   129   1   -0.041608060530152265      22.619288744905987      49.562917453419878
   130   1      1.4335237272334387      24.022409403457868      51.566236303561972
   131   1     0.13329026820581844      22.636784619033236      53.619915667980166
   132   1      1.3670960299084984      24.089710324866253      55.650892397474195
   133   1    0.097027637105053563      22.546367908176407      57.673505729428783
   134   1      1.3857865823845084      23.949419491229744      59.628343729420806
   135   1    0.028613482776475518      22.524812757977276      61.726217913848032
   136   1    0.096543785599370074      25.489285947356372      33.365582452340789
   137   1        1.38832774190223      26.756495006519437      35.373992930961506
   138   1   -0.015126204910271153       25.45057475651484      37.426289352722534
   139   1      1.4626292723475287      26.877955272780191      39.382896904349629
   140   1   -0.051995051960806005      25.389619293776107      41.468421392238326
   141   1      1.3335810320135175      26.831113627543498      43.566095549330569
   142   1    0.027475744885978828      25.389204373850923      45.588160380882421
   143   1      1.4211464973930485      26.821487381003415      47.573780049380247
   144   1    0.015065092913413573      25.465860231133199      49.541321030885172
   145   1      1.4057287269762722      26.838659975568518      51.559462973730597
   146   1   -0.061366257357346854      25.425276281087751      53.612573103908197
   147   1      1.4354892373994654      26.846189857659112       55.63012706277901
   148   1     -0.1267998795465046      25.434714326787677       57.74406678398249
   149   1       1.375775538050078      26.849031998393304      59.706165092570785
   150   1   -0.033913379911942876      25.379211778701329      61.687591227875302
   151   1    0.023826082894700101      28.264655661658221      33.320320362238519
   152   1      1.4047595404395654        29.6835219468384      35.478989770648617
   153   1   0.0077078079227840927      28.206951637020545      37.369237976735391
   154   1      1.4274729440102576      29.597964871864875       39.49299913352263
   155   1   0.0052176376082048604      28.229962109857389      41.527399956895444
   156   1      1.4824113920306412      29.723668125104954      43.459639583630931
   157   1    -0.01357302348969135      28.277036345215571       45.52251593883426
   158   1      1.3838871420872856       29.69478592171393      47.549009811611967
   159   1    0.053398605559406891      28.199263275868553      49.589413624271174
   160   1      1.4022405532495748      29.696068823933114      51.651233244229978
   161   1   -0.034138880397255246      28.209063590372157      53.573507309727852
   162   1      1.4014336734475328      29.701637208982589      55.636641454176541
   163   1    0.034464118931874843      28.263007395135055      57.587637103419922
   164   1      1.3897973318366161      29.717349859911273      59.689225149551525
   165   1   -0.045341778151582385      28.216264964460947      61.711264154819489
   166   1      2.8318149750614712   -0.016247769913154807       33.37703483262608
   167   1      4.1890980408418628      1.3785184899634233      35.350788963074535
   168   1      2.8849252818652378   -0.065549605562502208      37.444739167879874
   169   1      4.2079825907267541      1.4648207074559596      39.425424352756245
   170   1       2.774030216330782    0.013727810520941533      41.562998949320857
   171   1      4.2003456292458505      1.3112735560125268      43.470351350504572
   172   1      2.8511231873263321    0.018175694955567891      45.593417517297233
   173   1      4.2011467210546769      1.3264923243856055      47.645477858616523
   174   1      2.8904214170130667   -0.024703734988912429      49.546743248193664
   175   1      4.2874157197777958      1.4043169738517931      51.576803265839132
   176   1      2.8082209673925105    0.045697527460050992      53.603798238506847
   177   1      4.2553875406215145      1.4411815467146305      55.656691948636428
   178   1      2.8532348683565036   -0.027184626395464324      57.687233924724836
   179   1      4.2391320319774923      1.5046172368698425      59.657480682683897
   180   1      2.8475189945465513   -0.028126588669105564      61.667338421290992
   181   1      2.7629257830159752      2.7865467719855568      33.476942457660741
   182   1      4.1927889237068703      4.1856344662008755      35.322343625714119
   183   1      2.7226654144904696      2.8612555201200331      37.397184249387372
   184   1      4.2291195509220412      4.2388157123082202      39.330004887723007
   185   1      2.7839725503655144      2.7924333569761077      41.497699154651421
   186   1       4.190726176577467      4.2764766636167693      43.431138816839123
   187   1      2.8962776583179792      2.8448715716474773      45.507983180378631
   188   1      4.2774642699837342       4.257016771388372      47.560601230901604
   189   1      2.8900091444352318      2.7482859492520486      49.404132371024382
   190   1      4.1938165230998656      4.2162475250547686      51.688847537137214
   191   1      2.8500794532017162      2.8845533801609045      53.668655258987059
   192   1      4.2300168508842857      4.3665617511433599      55.635062816039358
   193   1      2.8047925708657817      2.8221756059646546      57.733812256839229
   194   1      4.1725872535584747      4.1495104475668088      59.723392980625306
   195   1      2.8136986658437824        2.87850490031208      61.718831520146928
   196   1      2.8434126344164574      5.6769620077716487      33.315182069372348
   197   1      4.2352661479312781      7.0904905720432403      35.305504014132772
   198   1      2.8198190787744064      5.5879472690224059      37.513878320126388
   199   1      4.2289816012014647      7.0221365033918923      39.444153301905601
   200   1      2.9374002497540861       5.632929918244403      41.476134415274686
   201   1      4.2473739163321715       7.057349608929262      43.461977285062574
   202   1      2.7799522189655632      5.6290456758795884      45.429311767996332
   203   1      4.2039355868561952      7.1089534196520638      47.589400684427275
   204   1      2.8337583804503863      5.6458453136107885      49.547263601719457
   205   1      4.2318046825996483       7.050307561517382      51.598835948458444
   206   1      2.8380390323563547       5.608424275492597       53.69221422706439
   207   1      4.2432505512413563      7.0897051461406972      55.631190149704977
   208   1      2.7633425151706432      5.5567718214766018      57.704268968055516
   209   1      4.2403991597596526      7.0270397646553056      59.702474327731181
   210   1      2.8431519717217668      5.6513866405776128      61.770066850218008
   211   1       2.831584323064487      8.5278422870602597      33.343766562016469
   212   1      4.2073187231815341       9.851183143798858      35.450197600681214
   213   1      2.8383558178274151       8.417771920082707       37.43219502433486
   214   1      4.2429592023831608      9.8953848500807275      39.489668421455363
   215   1      2.8169745250666822      8.3643070333746028      41.424504647619287
   216   1      4.2635820947174601      9.9356824809726483      43.528616480003862
   217   1      2.7366556563520761      8.5792955492884868       45.53065898536591
   218   1      4.3166557408862944      9.8341476316880598      47.529437202969838
   219   1      2.7975807218421553      8.4084947041200486      49.454176482910775
   220   1      4.2524009562457783       9.940878481411147      51.606853955091545
   221   1      2.8069455302389463      8.4124193658131556      53.594715402520094
   222   1      4.2178352040821636      9.8928121890966381      55.596944655428906
   223   1      2.8927412119697866      8.5323918009177717      57.674621528325609
   224   1      4.1840879730589666      9.8987626134029867      59.790900245056008
   225   1      2.7485115387739962      8.4632983967306554      61.654733080130022
   226   1       2.857132599274256      11.248507360773038      33.428043049256445
   227   1      4.2282345602121447      12.671713199223744      35.428085047523631
   228   1      2.8040518283388236      11.357963174583226      37.389572307003782
   229   1      4.1660455252198449      12.710672463512585      39.511036409710997
   230   1      2.8526742413633341      11.314033189259343      41.439202886684598
   231   1      4.1831782207878403      12.641903617631572      43.473357483141228
   232   1      2.9129007951094295      11.300537002343271      45.542573027748652
   233   1      4.1096504841466279      12.721425367586647      47.548208755282033
   234   1      2.7658397633122251      11.294559830908938      49.647185465210391
   235   1      4.2154416561562496      12.800478165720452      51.563090355641258
   236   1      2.9445800369211761      11.299906467475017      53.707629472637109
   237   1      4.1799179298549358      12.687996378833738      55.702328429222163
   238   1      2.8519740246926717      11.293203178588922       57.67045785529367
   239   1      4.1925563819977212      12.718902790628009      59.730680524853113
   240   1      2.7182013430275682      11.311952710748885      61.690745881874214
   241   1      2.8219196738161347      14.099117154258906      33.399315815014504
   242   1      4.2239258100740456       15.69387386048537      35.456044989143173
   243   1      2.8343259223840551      14.076349697171374      37.313506222004939
   244   1      4.1662844476958787      15.564675655223766      39.333330028863912
   245   1      2.8294168409184923      14.199371880920445       41.46407869203118
   246   1      4.1277594340555108      15.474968994769357       43.53190793698532
   247   1      2.9095860028385228      14.185334137571957      45.510403462097301
   248   1      4.2446606242986622      15.401207692103696      47.473127362470898
   249   1       2.798783968353729      14.176154413108696      49.565923503504294
   250   1      4.2328209064670341      15.588080336486458      51.627113072345466
   251   1      2.8695418740418193      14.154627951337513       53.56886732780616
   252   1      4.1633434809114966      15.532520245327948      55.587245092006853
   253   1      2.8509346499685377        14.0332258527372      57.660914363058808
   254   1      4.3112537246803724      15.594938593255906      59.654313297810887
   255   1      2.8707502839649419      14.106321467047009       61.80032549426415
   256   1      2.8189152662852113      16.904720268860679      33.443441757215595
   257   1      4.2452215035928198      18.379723542157709      35.333621437100675
   258   1      2.9513654220227798       16.93182152930974      37.486394872214788
   259   1      4.2484219525673632      18.321737712348288      39.473862513758448
   260   1      2.8077012803698915      16.890783010005954      41.506582681347396
   261   1      4.2403695535080104      18.392995451952991      43.540598116379812
   262   1      2.8699600202403399      16.938537852647706      45.497301225014667
   263   1      4.3008201323662085       18.35949359751088      47.469747247484939
   264   1      2.7802067959373522      16.866471683407688      49.557609981846717
   265   1      4.1894555726572653      18.287179342464711      51.608871930772992
   266   1        2.86026255610291      16.958778714513965      53.633883463960842
   267   1      4.1357547949743827      18.378885023729694      55.631966366288999
   268   1      2.7436691036227567      17.032718160767821      57.756381572188971
   269   1      4.3728135771573831      18.310827015524605      59.673756217465794
   270   1      2.8582637737562173      16.923407035875417      61.680984320578581
   271   1      2.8745978250499298       19.73783923789119      33.477233010610071
   272   1      4.1606621905616477      21.143812515098826      35.349278825433814
   273   1      2.8824484317303263      19.755413064553032      37.419959421401614
   274   1      4.2554040130359096      21.159029502858161      39.437703102650708
   275   1      2.8009196032304908      19.633107445359528      41.456615357729895
   276   1       4.250385060188564      21.124805080005661      43.564620793698396
   277   1      2.7357359081210886      19.746331050025088      45.576299963580979
   278   1      4.2062122130536803      21.239328306126616      47.509208055227148
   279   1      2.8008624886438351      19.743670109588756      49.684203678248394
   280   1      4.2029267066800298      21.128539603452538      51.662233324748222
   281   1      2.9052912570326366      19.804207007023845      53.622091344857736
   282   1       4.252298065305701      21.299505065722599      55.601724131282189
   283   1      2.8755907602798612      19.697066702056564      57.646009131458783
   284   1      4.3047986195817343      21.159510516289576      59.672752290364009
   285   1      2.9174945792773417      19.729170254913061       61.68611582956617
   286   1      2.7930748949846862      22.630666617124934      33.376658980517817
   287   1      4.2244927460613786      24.013402050618534      35.457370225652852
   288   1      2.8660620143958178      22.597534024689836      37.438827110144373
   289   1      4.3342218800056269       23.98395462153383      39.424497387915899
   290   1      2.8474008631922496      22.591353266400017      41.495117914168262
   291   1      4.3072051748714202      24.012945649583532      43.497926654883642
   292   1      2.7788555586136807      22.628248065836964      45.504956781200825
   293   1      4.2810968713454773      23.992312858389603      47.599991999476352
   294   1       2.789929756291647      22.609961183188727      49.585964263314921
   295   1      4.2493162484381912      23.921015594214964      51.697517859399824
   296   1      2.7745936782069243      22.581415832464234      53.635449363893024
   297   1      4.2399521735760164      24.010704371671384      55.684047400154427
   298   1      2.8331205006542137      22.536648152053154      57.686057535473985
   299   1      4.2755758840701574      23.994828115000193      59.643956810113515
   300   1       2.830102402753564      22.653609496099996      61.714834053707008
   301   1      2.8591255906057467      25.362797490277735      33.317123805868441
   302   1      4.2428425317524399      26.855496730114325      35.511134964498176
   303   1      2.8639851443219682      25.370298551561319      37.392730218991375
   304   1      4.2477800861878601      26.852211321706807      39.476611769545471
   305   1      2.7947925279068584      25.401749582604801      41.433812452648858
   306   1      4.2778255408196131      26.732648731017076      43.503371068355548
   307   1      2.8276680020086751      25.490352609703411      45.451478084943915
   308   1      4.1731201627919523      26.784534000692449      47.523910128254506
   309   1      2.8351036579451918      25.359695853936177      49.563151140396947
   310   1       4.204445949447857      26.842958010422922      51.537325390629022
   311   1      2.8163092740168869      25.355005177415308      53.709336481479745
   312   1      4.2983043665850911      26.884892291884647      55.589366615348993
   313   1      2.8479581975912338      25.470171558305854      57.610698461751646
   314   1      4.1941896613458338       26.79883631232396      59.660808065219378
   315   1      2.8804805482384754      25.450475960020054      61.785474965152467
   316   1      2.8881922067202423      28.224785073763201      33.358770039066734
   317   1      4.2423189592018042      29.689347237201748      35.393743685538901
   318   1      2.8463314639203783      28.225692450164274      37.396138469690285
   319   1      4.2131321629607994      29.696207542267452      39.384360837837129
   320   1      2.7999209839818322      28.284044719502752      41.392802048539757
   321   1       4.209622974950527      29.605230135071444      43.473755768357918
   322   1      2.7550347220740758      28.330006276092828      45.416630490926813
   323   1       4.215761613867639      29.669939254380381      47.600368126366178
   324   1      2.8461448780406293      28.294275805024679       49.66903614910256
   325   1       4.225295568245012      29.621405702007621      51.569272201838885
   326   1      2.8838960537196172      28.209059976061482      53.655233792306298
   327   1      4.1958232553349752      29.563172670331937      55.678714740640558
   328   1      2.7945139488944957      28.209370326961604      57.731613326502284
   329   1      4.3102613041661506      29.678547335672551      59.691153516895604
   330   1      2.8087545226215123      28.245293388460606      61.714412383312983
   331   1      5.6651422218832961   -0.017712268639477963      33.308500044469042
   332   1      7.0639649277302246      1.3288898123857287      35.343250941328662
   333   1      5.6602520948376922    -0.02032053006580288      37.414875185384091
   334   1      7.0601066265888157      1.4198783805097985      39.384451688809534
   335   1       5.680265183290846  0.00090019764582923041      41.494675126957119
   336   1      7.0742139107675683      1.4309439589946729      43.547991326522343
   337   1      5.7082878216299937   -0.026478732777061767      45.492197928217138
   338   1       7.060830847712344        1.51214548058206      47.529563583139577
   339   1       5.591468558999205     0.05407398708084829      49.622910192469348
   340   1      7.0526083291487422      1.5221439182750878      51.556872006408398
   341   1      5.6596639361940202    0.047223087047747532      53.618574327501342
   342   1      7.0831607263291421      1.4258913288896848      55.585852004468819
   343   1      5.6474262856778159   0.0032239332190177189      57.625627963692338
   344   1      7.1346293369955927      1.4335411426654179      59.742219013281435
   345   1      5.5875253434565737   -0.016337046936172394      61.688223732692592
   346   1      5.6606850641188631      2.7679205066825157      33.502248497923219
   347   1      7.0170282792278025      4.1448103200753472      35.365170249241146
   348   1      5.7039752885264079       2.806769567494384      37.447259537147076
   349   1      7.1171265475893399      4.2933285849040992      39.447825258649694
   350   1      5.6313172911034313      2.8076572395112036       41.48510174534298
   351   1      7.0916139405190091      4.2944319936505488      43.535494879411772
   352   1      5.6409188556690388      2.9060628879611268      45.537823562602213
   353   1      7.0189670176244503      4.1818025601448721      47.543531314703422
   354   1      5.7242542285071645      2.7788242111741832      49.610749793415792
   355   1      7.0325368348298305       4.260254748749615      51.570300411122346
   356   1      5.6812999850022541      2.7546326291681846      53.666138772424283
   357   1      7.0939222773922328      4.2808815060248291      55.694202753820477
   358   1      5.6318160440595681       2.900386747591722      57.750068039247694
   359   1      7.0064961992037933      4.2009705076182247      59.774735275987219