LAMMPS (11 Feb 2026 - Development - d97c5bd)
OMP_NUM_THREADS environment is not set. Defaulting to 1 thread.
  using 1 OpenMP thread(s) per MPI task
ERROR: Package gpu command without GPU package installed (src/input.cpp:1745)
Last input line: package gpu 1 
                         ^^^
--------------------------------------------------------------------------
Primary job  terminated normally, but 1 process returned
a non-zero exit code. Per user-direction, the job has been aborted.
--------------------------------------------------------------------------
--------------------------------------------------------------------------
mpirun detected that one or more processes exited with non-zero status, thus causing
the job to be terminated. The first process to do so was:

  Process name: [[40722,1],1]
  Exit code:    1
--------------------------------------------------------------------------
