(written by ASE)

864 atoms
1 atom types

0.0      24.539999999999999  xlo xhi
0.0      24.539999999999999  ylo yhi
0.0      24.539999999999999  zlo zhi

Atoms # atomic

     1   1                       0                       0                       0
     2   1                       0      2.0449999999999999      2.0449999999999999
     3   1      2.0449999999999999                       0      2.0449999999999999
     4   1      2.0449999999999999      2.0449999999999999                       0
     5   1                       0                       0      4.0899999999999999
     6   1                       0      2.0449999999999999      6.1349999999999998
     7   1      2.0449999999999999                       0      6.1349999999999998
     8   1      2.0449999999999999      2.0449999999999999      4.0899999999999999
     9   1                       0                       0      8.1799999999999997
    10   1                       0      2.0449999999999999                  10.225
    11   1      2.0449999999999999                       0                  10.225
    12   1      2.0449999999999999      2.0449999999999999      8.1799999999999997
    13   1                       0                       0                   12.27
    14   1                       0      2.0449999999999999                  14.315
    15   1      2.0449999999999999                       0                  14.315
    16   1      2.0449999999999999      2.0449999999999999                   12.27
    17   1                       0                       0      16.359999999999999
    18   1                       0      2.0449999999999999      18.405000000000001
    19   1      2.0449999999999999                       0      18.405000000000001
    20   1      2.0449999999999999      2.0449999999999999      16.359999999999999
    21   1                       0                       0      20.449999999999999
    22   1                       0      2.0449999999999999      22.494999999999997
    23   1      2.0449999999999999                       0      22.494999999999997
    24   1      2.0449999999999999      2.0449999999999999      20.449999999999999
    25   1                       0      4.0899999999999999                       0
    26   1                       0      6.1349999999999998      2.0449999999999999
    27   1      2.0449999999999999      4.0899999999999999      2.0449999999999999
    28   1      2.0449999999999999      6.1349999999999998                       0
    29   1                       0      4.0899999999999999      4.0899999999999999
    30   1                       0      6.1349999999999998      6.1349999999999998
    31   1      2.0449999999999999      4.0899999999999999      6.1349999999999998
    32   1      2.0449999999999999      6.1349999999999998      4.0899999999999999
    33   1                       0      4.0899999999999999      8.1799999999999997
    34   1                       0      6.1349999999999998                  10.225
    35   1      2.0449999999999999      4.0899999999999999                  10.225
    36   1      2.0449999999999999      6.1349999999999998      8.1799999999999997
    37   1                       0      4.0899999999999999                   12.27
    38   1                       0      6.1349999999999998                  14.315
    39   1      2.0449999999999999      4.0899999999999999                  14.315
    40   1      2.0449999999999999      6.1349999999999998                   12.27
    41   1                       0      4.0899999999999999      16.359999999999999
    42   1                       0      6.1349999999999998      18.405000000000001
    43   1      2.0449999999999999      4.0899999999999999      18.405000000000001
    44   1      2.0449999999999999      6.1349999999999998      16.359999999999999
    45   1                       0      4.0899999999999999      20.449999999999999
    46   1                       0      6.1349999999999998      22.494999999999997
    47   1      2.0449999999999999      4.0899999999999999      22.494999999999997
    48   1      2.0449999999999999      6.1349999999999998      20.449999999999999
    49   1                       0      8.1799999999999997                       0
    50   1                       0                  10.225      2.0449999999999999
    51   1      2.0449999999999999      8.1799999999999997      2.0449999999999999
    52   1      2.0449999999999999                  10.225                       0
    53   1                       0      8.1799999999999997      4.0899999999999999
    54   1                       0                  10.225      6.1349999999999998
    55   1      2.0449999999999999      8.1799999999999997      6.1349999999999998
    56   1      2.0449999999999999                  10.225      4.0899999999999999
    57   1                       0      8.1799999999999997      8.1799999999999997
    58   1                       0                  10.225                  10.225
    59   1      2.0449999999999999      8.1799999999999997                  10.225
    60   1      2.0449999999999999                  10.225      8.1799999999999997
    61   1                       0      8.1799999999999997                   12.27
    62   1                       0                  10.225                  14.315
    63   1      2.0449999999999999      8.1799999999999997                  14.315
    64   1      2.0449999999999999                  10.225                   12.27
    65   1                       0      8.1799999999999997      16.359999999999999
    66   1                       0                  10.225      18.405000000000001
    67   1      2.0449999999999999      8.1799999999999997      18.405000000000001
    68   1      2.0449999999999999                  10.225      16.359999999999999
    69   1                       0      8.1799999999999997      20.449999999999999
    70   1                       0                  10.225      22.494999999999997
    71   1      2.0449999999999999      8.1799999999999997      22.494999999999997
    72   1      2.0449999999999999                  10.225      20.449999999999999
    73   1                       0                   12.27                       0
    74   1                       0                  14.315      2.0449999999999999
    75   1      2.0449999999999999                   12.27      2.0449999999999999
    76   1      2.0449999999999999                  14.315                       0
    77   1                       0                   12.27      4.0899999999999999
    78   1                       0                  14.315      6.1349999999999998
    79   1      2.0449999999999999                   12.27      6.1349999999999998
    80   1      2.0449999999999999                  14.315      4.0899999999999999
    81   1                       0                   12.27      8.1799999999999997
    82   1                       0                  14.315                  10.225
    83   1      2.0449999999999999                   12.27                  10.225
    84   1      2.0449999999999999                  14.315      8.1799999999999997
    85   1                       0                   12.27                   12.27
    86   1                       0                  14.315                  14.315
    87   1      2.0449999999999999                   12.27                  14.315
    88   1      2.0449999999999999                  14.315                   12.27
    89   1                       0                   12.27      16.359999999999999
    90   1                       0                  14.315      18.405000000000001
    91   1      2.0449999999999999                   12.27      18.405000000000001
    92   1      2.0449999999999999                  14.315      16.359999999999999
    93   1                       0                   12.27      20.449999999999999
    94   1                       0                  14.315      22.494999999999997
    95   1      2.0449999999999999                   12.27      22.494999999999997
    96   1      2.0449999999999999                  14.315      20.449999999999999
    97   1                       0      16.359999999999999                       0
    98   1                       0      18.405000000000001      2.0449999999999999
    99   1      2.0449999999999999      16.359999999999999      2.0449999999999999
   100   1      2.0449999999999999      18.405000000000001                       0
   101   1                       0      16.359999999999999      4.0899999999999999
   102   1                       0      18.405000000000001      6.1349999999999998
   103   1      2.0449999999999999      16.359999999999999      6.1349999999999998
   104   1      2.0449999999999999      18.405000000000001      4.0899999999999999
   105   1                       0      16.359999999999999      8.1799999999999997
   106   1                       0      18.405000000000001                  10.225
   107   1      2.0449999999999999      16.359999999999999                  10.225
   108   1      2.0449999999999999      18.405000000000001      8.1799999999999997
   109   1                       0      16.359999999999999                   12.27
   110   1                       0      18.405000000000001                  14.315
   111   1      2.0449999999999999      16.359999999999999                  14.315
   112   1      2.0449999999999999      18.405000000000001                   12.27
   113   1                       0      16.359999999999999      16.359999999999999
   114   1                       0      18.405000000000001      18.405000000000001
   115   1      2.0449999999999999      16.359999999999999      18.405000000000001
   116   1      2.0449999999999999      18.405000000000001      16.359999999999999
   117   1                       0      16.359999999999999      20.449999999999999
   118   1                       0      18.405000000000001      22.494999999999997
   119   1      2.0449999999999999      16.359999999999999      22.494999999999997
   120   1      2.0449999999999999      18.405000000000001      20.449999999999999
   121   1                       0      20.449999999999999                       0
   122   1                       0      22.494999999999997      2.0449999999999999
   123   1      2.0449999999999999      20.449999999999999      2.0449999999999999
   124   1      2.0449999999999999      22.494999999999997                       0
   125   1                       0      20.449999999999999      4.0899999999999999
   126   1                       0      22.494999999999997      6.1349999999999998
   127   1      2.0449999999999999      20.449999999999999      6.1349999999999998
   128   1      2.0449999999999999      22.494999999999997      4.0899999999999999
   129   1                       0      20.449999999999999      8.1799999999999997
   130   1                       0      22.494999999999997                  10.225
   131   1      2.0449999999999999      20.449999999999999                  10.225
   132   1      2.0449999999999999      22.494999999999997      8.1799999999999997
   133   1                       0      20.449999999999999                   12.27
   134   1                       0      22.494999999999997                  14.315
   135   1      2.0449999999999999      20.449999999999999                  14.315
   136   1      2.0449999999999999      22.494999999999997                   12.27
   137   1                       0      20.449999999999999      16.359999999999999
   138   1                       0      22.494999999999997      18.405000000000001
   139   1      2.0449999999999999      20.449999999999999      18.405000000000001
   140   1      2.0449999999999999      22.494999999999997      16.359999999999999
   141   1                       0      20.449999999999999      20.449999999999999
   142   1                       0      22.494999999999997      22.494999999999997
   143   1      2.0449999999999999      20.449999999999999      22.494999999999997
   144   1      2.0449999999999999      22.494999999999997      20.449999999999999
   145   1      4.0899999999999999                       0                       0
   146   1      4.0899999999999999      2.0449999999999999      2.0449999999999999
   147   1      6.1349999999999998                       0      2.0449999999999999
   148   1      6.1349999999999998      2.0449999999999999                       0
   149   1      4.0899999999999999                       0      4.0899999999999999
   150   1      4.0899999999999999      2.0449999999999999      6.1349999999999998
   151   1      6.1349999999999998                       0      6.1349999999999998
   152   1      6.1349999999999998      2.0449999999999999      4.0899999999999999
   153   1      4.0899999999999999                       0      8.1799999999999997
   154   1      4.0899999999999999      2.0449999999999999                  10.225
   155   1      6.1349999999999998                       0                  10.225
   156   1      6.1349999999999998      2.0449999999999999      8.1799999999999997
   157   1      4.0899999999999999                       0                   12.27
   158   1      4.0899999999999999      2.0449999999999999                  14.315
   159   1      6.1349999999999998                       0                  14.315
   160   1      6.1349999999999998      2.0449999999999999                   12.27
   161   1      4.0899999999999999                       0      16.359999999999999
   162   1      4.0899999999999999      2.0449999999999999      18.405000000000001
   163   1      6.1349999999999998                       0      18.405000000000001
   164   1      6.1349999999999998      2.0449999999999999      16.359999999999999
   165   1      4.0899999999999999                       0      20.449999999999999
   166   1      4.0899999999999999      2.0449999999999999      22.494999999999997
   167   1      6.1349999999999998                       0      22.494999999999997
   168   1      6.1349999999999998      2.0449999999999999      20.449999999999999
   169   1      4.0899999999999999      4.0899999999999999                       0
   170   1      4.0899999999999999      6.1349999999999998      2.0449999999999999
   171   1      6.1349999999999998      4.0899999999999999      2.0449999999999999
   172   1      6.1349999999999998      6.1349999999999998                       0
   173   1      4.0899999999999999      4.0899999999999999      4.0899999999999999
   174   1      4.0899999999999999      6.1349999999999998      6.1349999999999998
   175   1      6.1349999999999998      4.0899999999999999      6.1349999999999998
   176   1      6.1349999999999998      6.1349999999999998      4.0899999999999999
   177   1      4.0899999999999999      4.0899999999999999      8.1799999999999997
   178   1      4.0899999999999999      6.1349999999999998                  10.225
   179   1      6.1349999999999998      4.0899999999999999                  10.225
   180   1      6.1349999999999998      6.1349999999999998      8.1799999999999997
   181   1      4.0899999999999999      4.0899999999999999                   12.27
   182   1      4.0899999999999999      6.1349999999999998                  14.315
   183   1      6.1349999999999998      4.0899999999999999                  14.315
   184   1      6.1349999999999998      6.1349999999999998                   12.27
   185   1      4.0899999999999999      4.0899999999999999      16.359999999999999
   186   1      4.0899999999999999      6.1349999999999998      18.405000000000001
   187   1      6.1349999999999998      4.0899999999999999      18.405000000000001
   188   1      6.1349999999999998      6.1349999999999998      16.359999999999999
   189   1      4.0899999999999999      4.0899999999999999      20.449999999999999
   190   1      4.0899999999999999      6.1349999999999998      22.494999999999997
   191   1      6.1349999999999998      4.0899999999999999      22.494999999999997
   192   1      6.1349999999999998      6.1349999999999998      20.449999999999999
   193   1      4.0899999999999999      8.1799999999999997                       0
   194   1      4.0899999999999999                  10.225      2.0449999999999999
   195   1      6.1349999999999998      8.1799999999999997      2.0449999999999999
   196   1      6.1349999999999998                  10.225                       0
   197   1      4.0899999999999999      8.1799999999999997      4.0899999999999999
   198   1      4.0899999999999999                  10.225      6.1349999999999998
   199   1      6.1349999999999998      8.1799999999999997      6.1349999999999998
   200   1      6.1349999999999998                  10.225      4.0899999999999999
   201   1      4.0899999999999999      8.1799999999999997      8.1799999999999997
   202   1      4.0899999999999999                  10.225                  10.225
   203   1      6.1349999999999998      8.1799999999999997                  10.225
   204   1      6.1349999999999998                  10.225      8.1799999999999997
   205   1      4.0899999999999999      8.1799999999999997                   12.27
   206   1      4.0899999999999999                  10.225                  14.315
   207   1      6.1349999999999998      8.1799999999999997                  14.315
   208   1      6.1349999999999998                  10.225                   12.27
   209   1      4.0899999999999999      8.1799999999999997      16.359999999999999
   210   1      4.0899999999999999                  10.225      18.405000000000001
   211   1      6.1349999999999998      8.1799999999999997      18.405000000000001
   212   1      6.1349999999999998                  10.225      16.359999999999999
   213   1      4.0899999999999999      8.1799999999999997      20.449999999999999
   214   1      4.0899999999999999                  10.225      22.494999999999997
   215   1      6.1349999999999998      8.1799999999999997      22.494999999999997
   216   1      6.1349999999999998                  10.225      20.449999999999999
   217   1      4.0899999999999999                   12.27                       0
   218   1      4.0899999999999999                  14.315      2.0449999999999999
   219   1      6.1349999999999998                   12.27      2.0449999999999999
   220   1      6.1349999999999998                  14.315                       0
   221   1      4.0899999999999999                   12.27      4.0899999999999999
   222   1      4.0899999999999999                  14.315      6.1349999999999998
   223   1      6.1349999999999998                   12.27      6.1349999999999998
   224   1      6.1349999999999998                  14.315      4.0899999999999999
   225   1      4.0899999999999999                   12.27      8.1799999999999997
   226   1      4.0899999999999999                  14.315                  10.225
   227   1      6.1349999999999998                   12.27                  10.225
   228   1      6.1349999999999998                  14.315      8.1799999999999997
   229   1      4.0899999999999999                   12.27                   12.27
   230   1      4.0899999999999999                  14.315                  14.315
   231   1      6.1349999999999998                   12.27                  14.315
   232   1      6.1349999999999998                  14.315                   12.27
   233   1      4.0899999999999999                   12.27      16.359999999999999
   234   1      4.0899999999999999                  14.315      18.405000000000001
   235   1      6.1349999999999998                   12.27      18.405000000000001
   236   1      6.1349999999999998                  14.315      16.359999999999999
   237   1      4.0899999999999999                   12.27      20.449999999999999
   238   1      4.0899999999999999                  14.315      22.494999999999997
   239   1      6.1349999999999998                   12.27      22.494999999999997
   240   1      6.1349999999999998                  14.315      20.449999999999999
   241   1      4.0899999999999999      16.359999999999999                       0
   242   1      4.0899999999999999      18.405000000000001      2.0449999999999999
   243   1      6.1349999999999998      16.359999999999999      2.0449999999999999
   244   1      6.1349999999999998      18.405000000000001                       0
   245   1      4.0899999999999999      16.359999999999999      4.0899999999999999
   246   1      4.0899999999999999      18.405000000000001      6.1349999999999998
   247   1      6.1349999999999998      16.359999999999999      6.1349999999999998
   248   1      6.1349999999999998      18.405000000000001      4.0899999999999999
   249   1      4.0899999999999999      16.359999999999999      8.1799999999999997
   250   1      4.0899999999999999      18.405000000000001                  10.225
   251   1      6.1349999999999998      16.359999999999999                  10.225
   252   1      6.1349999999999998      18.405000000000001      8.1799999999999997
   253   1      4.0899999999999999      16.359999999999999                   12.27
   254   1      4.0899999999999999      18.405000000000001                  14.315
   255   1      6.1349999999999998      16.359999999999999                  14.315
   256   1      6.1349999999999998      18.405000000000001                   12.27
   257   1      4.0899999999999999      16.359999999999999      16.359999999999999
   258   1      4.0899999999999999      18.405000000000001      18.405000000000001
   259   1      6.1349999999999998      16.359999999999999      18.405000000000001
   260   1      6.1349999999999998      18.405000000000001      16.359999999999999
   261   1      4.0899999999999999      16.359999999999999      20.449999999999999
   262   1      4.0899999999999999      18.405000000000001      22.494999999999997
   263   1      6.1349999999999998      16.359999999999999      22.494999999999997
   264   1      6.1349999999999998      18.405000000000001      20.449999999999999
   265   1      4.0899999999999999      20.449999999999999                       0
   266   1      4.0899999999999999      22.494999999999997      2.0449999999999999
   267   1      6.1349999999999998      20.449999999999999      2.0449999999999999
   268   1      6.1349999999999998      22.494999999999997                       0
   269   1      4.0899999999999999      20.449999999999999      4.0899999999999999
   270   1      4.0899999999999999      22.494999999999997      6.1349999999999998
   271   1      6.1349999999999998      20.449999999999999      6.1349999999999998
   272   1      6.1349999999999998      22.494999999999997      4.0899999999999999
   273   1      4.0899999999999999      20.449999999999999      8.1799999999999997
   274   1      4.0899999999999999      22.494999999999997                  10.225
   275   1      6.1349999999999998      20.449999999999999                  10.225
   276   1      6.1349999999999998      22.494999999999997      8.1799999999999997
   277   1      4.0899999999999999      20.449999999999999                   12.27
   278   1      4.0899999999999999      22.494999999999997                  14.315
   279   1      6.1349999999999998      20.449999999999999                  14.315
   280   1      6.1349999999999998      22.494999999999997                   12.27
   281   1      4.0899999999999999      20.449999999999999      16.359999999999999
   282   1      4.0899999999999999      22.494999999999997      18.405000000000001
   283   1      6.1349999999999998      20.449999999999999      18.405000000000001
   284   1      6.1349999999999998      22.494999999999997      16.359999999999999
   285   1      4.0899999999999999      20.449999999999999      20.449999999999999
   286   1      4.0899999999999999      22.494999999999997      22.494999999999997
   287   1      6.1349999999999998      20.449999999999999      22.494999999999997
   288   1      6.1349999999999998      22.494999999999997      20.449999999999999
   289   1      8.1799999999999997                       0                       0
   290   1      8.1799999999999997      2.0449999999999999      2.0449999999999999
   291   1                  10.225                       0      2.0449999999999999
   292   1                  10.225      2.0449999999999999                       0
   293   1      8.1799999999999997                       0      4.0899999999999999
   294   1      8.1799999999999997      2.0449999999999999      6.1349999999999998
   295   1                  10.225                       0      6.1349999999999998
   296   1                  10.225      2.0449999999999999      4.0899999999999999
   297   1      8.1799999999999997                       0      8.1799999999999997
   298   1      8.1799999999999997      2.0449999999999999                  10.225
   299   1                  10.225                       0                  10.225
   300   1                  10.225      2.0449999999999999      8.1799999999999997
   301   1      8.1799999999999997                       0                   12.27
   302   1      8.1799999999999997      2.0449999999999999                  14.315
   303   1                  10.225                       0                  14.315
   304   1                  10.225      2.0449999999999999                   12.27
   305   1      8.1799999999999997                       0      16.359999999999999
   306   1      8.1799999999999997      2.0449999999999999      18.405000000000001
   307   1                  10.225                       0      18.405000000000001
   308   1                  10.225      2.0449999999999999      16.359999999999999
   309   1      8.1799999999999997                       0      20.449999999999999
   310   1      8.1799999999999997      2.0449999999999999      22.494999999999997
   311   1                  10.225                       0      22.494999999999997
   312   1                  10.225      2.0449999999999999      20.449999999999999
   313   1      8.1799999999999997      4.0899999999999999                       0
   314   1      8.1799999999999997      6.1349999999999998      2.0449999999999999
   315   1                  10.225      4.0899999999999999      2.0449999999999999
   316   1                  10.225      6.1349999999999998                       0
   317   1      8.1799999999999997      4.0899999999999999      4.0899999999999999
   318   1      8.1799999999999997      6.1349999999999998      6.1349999999999998
   319   1                  10.225      4.0899999999999999      6.1349999999999998
   320   1                  10.225      6.1349999999999998      4.0899999999999999
   321   1      8.1799999999999997      4.0899999999999999      8.1799999999999997
   322   1      8.1799999999999997      6.1349999999999998                  10.225
   323   1                  10.225      4.0899999999999999                  10.225
   324   1                  10.225      6.1349999999999998      8.1799999999999997
   325   1      8.1799999999999997      4.0899999999999999                   12.27
   326   1      8.1799999999999997      6.1349999999999998                  14.315
   327   1                  10.225      4.0899999999999999                  14.315
   328   1                  10.225      6.1349999999999998                   12.27
   329   1      8.1799999999999997      4.0899999999999999      16.359999999999999
   330   1      8.1799999999999997      6.1349999999999998      18.405000000000001
   331   1                  10.225      4.0899999999999999      18.405000000000001
   332   1                  10.225      6.1349999999999998      16.359999999999999
   333   1      8.1799999999999997      4.0899999999999999      20.449999999999999
   334   1      8.1799999999999997      6.1349999999999998      22.494999999999997
   335   1                  10.225      4.0899999999999999      22.494999999999997
   336   1                  10.225      6.1349999999999998      20.449999999999999
   337   1      8.1799999999999997      8.1799999999999997                       0
   338   1      8.1799999999999997                  10.225      2.0449999999999999
   339   1                  10.225      8.1799999999999997      2.0449999999999999
   340   1                  10.225                  10.225                       0
   341   1      8.1799999999999997      8.1799999999999997      4.0899999999999999
   342   1      8.1799999999999997                  10.225      6.1349999999999998
   343   1                  10.225      8.1799999999999997      6.1349999999999998
   344   1                  10.225                  10.225      4.0899999999999999
   345   1      8.1799999999999997      8.1799999999999997      8.1799999999999997
   346   1      8.1799999999999997                  10.225                  10.225
   347   1                  10.225      8.1799999999999997                  10.225
   348   1                  10.225                  10.225      8.1799999999999997
   349   1      8.1799999999999997      8.1799999999999997                   12.27
   350   1      8.1799999999999997                  10.225                  14.315
   351   1                  10.225      8.1799999999999997                  14.315
   352   1                  10.225                  10.225                   12.27
   353   1      8.1799999999999997      8.1799999999999997      16.359999999999999
   354   1      8.1799999999999997                  10.225      18.405000000000001
   355   1                  10.225      8.1799999999999997      18.405000000000001
   356   1                  10.225                  10.225      16.359999999999999
   357   1      8.1799999999999997      8.1799999999999997      20.449999999999999
   358   1      8.1799999999999997                  10.225      22.494999999999997
   359   1                  10.225      8.1799999999999997      22.494999999999997