(written by ASE)

3921 atoms
2 atom types

0.0      28.614999999999998  xlo xhi
0.0      31.066736431430968  ylo yhi
0.0      64.493362659014693  zlo zhi

Atoms # atomic

     1   1   -0.053944845547383304     0.14545335730203804      33.843794947779926
     2   1      2.1783698928561255      1.3875541058449046      35.288063827320279
     3   1  -0.0092461102498594804   0.0031983979699510504       36.66701567508705
     4   1      2.0787974580795945      1.4338168108774574      38.098999844425158
     5   1    0.027037456676368317   -0.081840225452259413      39.551068828085562
     6   1      2.0906143146158214      1.4120643983634094      40.987243155461428
     7   1    0.053870630160896354   -0.052948494400172602      42.422348619108462
     8   1      2.0350775767414082      1.4641374804814635      43.833277904158706
     9   1   -0.086303788461916331     0.11638423154173594       45.30356530405875
    10   1      1.9785974068506713      1.4047522975234612      46.714226748856746
    11   1   -0.077223917402255413    0.051228526456339345      48.179582930687211
    12   1      2.0238852204417981      1.4602266526123169      49.564665824906768
    13   1    0.045476186078643857   0.0095171444272153724      51.055975479647877
    14   1      1.9316014488115858      1.4184379128817111       52.43944841213829
    15   1   -0.071867866916083933    0.025615501399921747      53.915733759231813
    16   1      1.9617285024282165      1.3317820742624753      55.283937378216471
    17   1     0.01497310504060672    -0.10682937793361176      56.779617700068407
    18   1      2.0282673573908907       1.374508026189678      58.201250900443753
    19   1    0.054934392506461607   -0.021745033255636034      59.644863980276938
    20   1      2.0192633663591244       1.461695832727129      61.044911429901589
    21   1   0.0043537592759851432     0.15401878409710226      62.513373546694467
    22   1    0.016840401480859354      2.7928967148869446      33.841710304071178
    23   1      2.0516185808609295      4.2891018596239583      35.285076028254927
    24   1    0.052642348948333487      2.8780510819913525      36.735199088613754
    25   1       1.959253789372813      4.2734354598687716      38.162139711805828
    26   1    0.035755845070442521      2.9235955125389705       39.59474591278417
    27   1      2.0397162000190785      4.1953109507752595      41.010917218595857
    28   1    0.019350391906662406      2.8266380917968106      42.490261711158972
    29   1      2.0471873994177114      4.2502886980745735      43.876150221654029
    30   1     0.01732287693027024      2.8151039478735878      45.300699377656827
    31   1      2.0458636726004178      4.2459691164553952      46.738421395129286
    32   1  -0.0034997801303906562      2.9600396722039548      48.148868656984348
    33   1      1.9571181031705931      4.1779206983427333      49.601343144992335
    34   1   -0.040206363059650127      2.8257140237804337      50.934530066462919
    35   1      2.0304522123553057      4.2678256531681455      52.477721975516488
    36   1   -0.081289022918808782      2.8034784239842692      53.981779241229724
    37   1      1.9955131579058034      4.3201260676550239      55.275060353261622
    38   1 -0.00037151912938404905      2.8170698535903225      56.835725196882997
    39   1      2.0915232229700416      4.2239021595061663      58.244261660819248
    40   1    0.035683881820842013      2.7562809299208784      59.717928558740965
    41   1      2.0281357955355332      4.2751590717965042      61.162593688097694
    42   1   -0.015557224375619728      2.9175640991387257      62.455955661632665
    43   1    -0.11050520928759355      5.7164479952518716      33.853767602634555
    44   1      1.9847122288128398      7.0901265246689871      35.205487496470901
    45   1   -0.040587751337162997      5.5658149763928222      36.632849440945542
    46   1      2.1190863824289323      7.0433523289484885      38.103719696357189
    47   1     0.12126277941001605      5.5023243631555498      39.657187697123966
    48   1      2.0179602545110611      7.0663190683953809      41.029943670761291
    49   1    0.039696820665844741      5.6501734013326521      42.357159619235112
    50   1      2.0518840371004594       7.088438933498141      43.827555178037741
    51   1   -0.030661261674558543      5.6929706511236136      45.361405322609421
    52   1      2.0539714940943088      7.0512561798603572       46.73480367514464
    53   1    0.013402015902784239      5.6157453291615163      48.247924345228299
    54   1      2.0227224128426444      7.0117011343768478      49.711409673192144
    55   1   -0.084414860396375815      5.6572878936870419      51.007010888564587
    56   1      2.0103755796910749       7.061611097970161      52.471182451788209
    57   1   -0.027029498085226089      5.6674056876708692      53.907583784225999
    58   1      2.0393627938050902      6.9935697932526786      55.393084464038083
    59   1   -0.050989923974659991      5.6376531526576734      56.720180406943584
    60   1      2.1009461471292199      7.0490165193515537      58.127516359270601
    61   1    0.063774724282612189      5.5733298119564205      59.623934749810033
    62   1      2.0062953579090523      7.0003967541634706       61.07869941123392
    63   1   0.0092951680888165179      5.6197805257056821      62.512249234225564
    64   1    0.069313935661257972      8.4993919920713825      33.900412063914679
    65   1      2.0212733139405228      9.9330147908104482      35.323195406095877
    66   1    -0.11917300178100672      8.4402313412386434      36.660182762222604
    67   1      2.1150563160249716       9.822613789755831      38.180193537623524
    68   1   -0.020465013062661099       8.426152179714574      39.636421950964966
    69   1      2.0498873549213794      9.9132077072873646      40.978817076910424
    70   1    0.026205175752415873      8.4622736675918659      42.458875257506953
    71   1      2.0283817692903852      9.9466376119952411      43.946938094693714
    72   1    -0.11784241592517086      8.4597348895910098      45.283033130580456
    73   1      2.0687639803365943      9.8890103001246938      46.753523477727008
    74   1   -0.082381399511519598      8.4192517786638792      48.203681318414795
    75   1      2.0819290172269014       9.918402399997845      49.536727227320696
    76   1    0.022150453337172308      8.5157794524723815      51.001207962617784
    77   1      2.0505256401361094      9.8892340686415441      52.442590138921027
    78   1   0.0080218328025954723      8.4987760749227199      53.953980043157941
    79   1      2.0921942884438485      9.9596400847228317      55.305368425062014
    80   1    0.022218658998739198      8.4613550967152644      56.695410950703838
    81   1      1.9770233246717965      10.023651259222266      58.196631719359054
    82   1   -0.089622896762059756      8.4250568769145744      59.612182284766313
    83   1      2.0309721164281096      9.8989072838312993       61.03870624724474
    84   1   0.0027472503261801225      8.4263579181226191      62.503633107143159
    85   1    0.077632251349262271      11.185118032828699      33.874636104742699
    86   1      2.0192136541044352      12.701710752435247       35.39509958144432
    87   1   -0.017928661193221073      11.332505168449417      36.652103494762081
    88   1      1.9137248683750385      12.737506080891851      38.125951994926261
    89   1    0.030541627735296967      11.362519072391953      39.608024145809161
    90   1      2.0510541419680623      12.649990641339317      40.966790610845571
    91   1   -0.028048230249690106      11.296368165869831      42.464277636965583
    92   1      2.0602042259984419      12.717799253494734      43.836944803130002
    93   1    0.054737818138192479      11.273863734777743      45.265189110701527
    94   1      2.1279068450470335      12.664054619530587      46.705337826581776
    95   1   -0.044157308743586601      11.395965550354326      48.246782669433941
    96   1       1.996472968441964      12.741433898739453      49.573961309001035
    97   1   -0.066511946936570809      11.314619695036111      51.049468382282534
    98   1      2.0532625964927398      12.663903219966127       52.45119532465035
    99   1    0.040534431399813942      11.287330718851258      53.950638282812818
   100   1      2.0148328218119169      12.726714009551472      55.213730289895814
   101   1    -0.11017911092811175       11.31173183919881      56.848353709590768
   102   1      2.0037691697705919      12.715752561963805      58.259539043335394
   103   1  0.00034161494197379195      11.363917300458956      59.582980615397609
   104   1      2.0764102877529007      12.754209442136139      61.094749685163997
   105   1   -0.071145107307603928      11.297595849453881      62.467828152850622
   106   1   -0.036441661160770321      14.121612633473841      33.865004119637597
   107   1      2.0797321083686287      15.587461747444262      35.370564728843533
   108   1  -0.0020461233270595851       14.14879494237884      36.636086423910392
   109   1      2.0813002955115731      15.526917003649492      38.132985290198135
   110   1    0.084854647228052235      14.097334242037034      39.544897206170724
   111   1      2.1078789864391929      15.506281402182427      41.026873556372479
   112   1   -0.018917817156497697      14.199397650331143      42.441667990796105
   113   1      2.0599808616375337      15.537532655918831      43.903636101046231
   114   1     0.11958919842882065      14.126494144808371      45.239305317479264
   115   1      1.9791513550749329      15.555509794223521       46.70455755540948
   116   1    0.076124457737850093      14.151238674662029      48.203018488345684
   117   1      2.0466999999415996      15.529599008759275      49.630050227647921
   118   1  0.00047486187557062342      14.186414068122971      51.054872607032586
   119   1      2.0854581830131402      15.606513210132011      52.491195350452436
   120   1   0.0012127889004602919      14.158269757869729       53.89408953715521
   121   1      2.0337498143006809      15.542657462478067      55.284860609949824
   122   1    0.030975792082084199      14.048455461876639      56.763341721211283
   123   1      2.0416651047781387      15.415086122174763      58.142237800343572
   124   1   -0.050216390444144915      14.128041324869526      59.689047243548558
   125   1      1.9893595208870745      15.513718715218582      60.988464994839525
   126   1    0.091948537305446332      14.139006874915706      62.535679216592925
   127   1    -0.13286718096492176      16.888956837843974       33.84950901411117
   128   1      2.0074357075767848      18.439702747675693      35.343847878726478
   129   1    -0.10979469524792429      17.041676572486672      36.702612883852424
   130   1      2.0573967319422453      18.301635478603735      38.248401867442787
   131   1     0.11639614682786359       16.97414425371813      39.544124052589879
   132   1      2.0591120473810718      18.341372387163066      41.097150550475241
   133   1    0.045256788299591032      16.982171900955478      42.348795421743787
   134   1      2.0656865071577202      18.418454289938161      43.889329533501233
   135   1    0.017485611496262217      16.929695129389874      45.354862903166854
   136   1      1.9793399739937489      18.423360048097475      46.738382751294935
   137   1   -0.077053023985842267      17.020498015912494      48.209030890544547
   138   1        2.09867161133542      18.377819376339495      49.624401960348457
   139   1   0.0095159052874750991      16.901173423565478      51.074536507991461
   140   1      2.0293541387508638      18.386379079259203      52.499690713546684
   141   1   -0.014852837653419593      16.900075480468438      53.908212511284368
   142   1      2.0383546976483808      18.325534915074542      55.406098325679473
   143   1  -0.0022255221074347952      16.920664192421278      56.723672011818422
   144   1      2.2230587883810338      18.305850001469796      58.154426285103426
   145   1    0.058112954416336099      16.929822532960827      59.593437805300198
   146   1      2.0628768418800973      18.446603145466845      61.041909106391152
   147   1   -0.010517346997121882      16.855083775072483       62.47771462874686
   148   1   -0.011353672320413134      19.838974061415037       33.89905554732583
   149   1      2.0982759146843812      21.197603887710773      35.249690823824452
   150   1   -0.089179749029389424      19.853843333410559      36.737601945975271
   151   1      2.0040992902037775      21.252645036243102      38.180081241931717
   152   1    0.008293973642667575      19.753004308003071      39.545354557503337
   153   1       2.105865019901441      21.268961290343274      40.989851551793699
   154   1    0.029447813563181626      19.765876822301855      42.407755327905996
   155   1      2.0103631903233636      21.250249425327855      43.850171812088298
   156   1   -0.011145968100423316      19.728046260910585      45.317916077321023
   157   1      1.9608618160916405      21.137652135240931      46.734696660652851
   158   1    0.027395181955246917      19.860409216629662      48.141552959591998
   159   1      2.1339923985809963        21.1843890880521       49.68270955118156
   160   1    0.048176887312200961      19.856688841351623      50.980948306052404
   161   1      2.0611934356423363      21.141205471319999      52.511181396689892
   162   1    0.050611869289335289      19.791680311481024      53.881815591558613
   163   1      2.0746218046053047      21.194992624588757      55.310939387859051
   164   1   -0.010974381214135118      19.729704250393969      56.761276301340452
   165   1      2.0583157655962436      21.180821998553785      58.229046559122054
   166   1   -0.038433495667334408      19.715859341628441      59.643825160546207
   167   1       2.050885017578632      21.206606166175614      61.118166060506979
   168   1    -0.04743738152784302      19.775492243686188      62.618238470228881
   169   1     0.04833305951587797      22.665608819201466      33.830398624453807
   170   1      2.0584931098153048      23.946281490236228      35.307318065248388
   171   1   -0.090580510018527183      22.605800116940365      36.617340262990986
   172   1        1.94822750001279       24.02219656787647      38.206686273248287
   173   1   -0.054692101558050724      22.584293872810164      39.725591000403028
   174   1      2.1096837941136437      23.962119748816264      40.857590276299121
   175   1  -0.0025364773763077277      22.548137096842979      42.448834296606812
   176   1      2.0370669610426821       24.00739305532224      43.917697789804578
   177   1    0.062450575708785573      22.623378121519018      45.318598764696517
   178   1      2.0160921179832521      23.926584500955311      46.704549081330768
   179   1    0.039986444327881399       22.53939292604473      48.140021572193945
   180   1      1.9995130056110135      24.029732354365574      49.581849658428702
   181   1   0.0015808215094917919      22.560553407104823      51.063467958509449
   182   1      1.9920608090029026       24.06581561601865      52.399854285600966
   183   1   -0.039327497729831212      22.590253082426841      54.015951147328366
   184   1      2.0510515107107365      24.040898663590859      55.316069546017793
   185   1   -0.092323216175367276      22.554038243020013       56.72986195155822
   186   1      2.1408505908389017      24.079835541122893       58.11055052117289
   187   1  -0.0050183976491056598      22.625006382465365      59.679570461933864
   188   1      2.0854949847608557      23.984792893019534      61.032570137681525
   189   1    0.030545005413299211      22.527186030965922      62.435082847552266
   190   1   -0.028716966151857665      25.420687209016659      33.886259634476417
   191   1      2.0157168008234732      26.781970385613405      35.235122720620019
   192   1  -0.0080164405624843574      25.468225710473988      36.759721338434439
   193   1      2.0850023688491603      26.790241636675411      38.044850222941129
   194   1     0.07369312506779388      25.451336453028819      39.627324161342209
   195   1      2.0056734898355471      26.830514961463948      41.022502036576171
   196   1    0.041870058666177545      25.327757928138837      42.356668660993954
   197   1      2.0740232773734806      26.809140435585562      43.875789802613703
   198   1   -0.020030633378464165      25.451534724813268      45.295270013738431
   199   1      2.0342392523226165      26.815472538247938      46.778019207738986
   200   1    0.041426023300426225      25.349209421069887      48.170192658563963
   201   1      2.0536749759637343      26.920597510094915      49.646424757585685
   202   1   0.0015029527017811502      25.319258905066711      51.014492142774458
   203   1      1.9906447712210051      26.832949579101371      52.402322412628351
   204   1    0.014535183879042735      25.492668640380618      53.821520661182518
   205   1      2.0721208398314608      26.873595763573462      55.330131765853722
   206   1    0.022420743005159251      25.380922630646875      56.744787944132177
   207   1      2.0392728337015669      26.813953555557308      58.156111397337057
   208   1   -0.066730405490523059      25.495708915285729      59.639943039082588
   209   1      2.0674910069031371      26.735325494214848       61.06991315521816
   210   1   -0.018661142961730753       25.43820912540037      62.590492646899449
   211   1   -0.058246355979186197      28.228657370907467       33.79655929184424
   212   1      2.1660501005457502      29.601517866879309      35.289992249584515
   213   1   -0.073705680666801554       28.27188510823521      36.709893461855792
   214   1      2.1237988056629851      29.671910199275377       38.11251362331334
   215   1   -0.073204263746975015      28.195543092485121      39.596976344713916
   216   1      2.0510247047998278      29.678291653346413      41.113439703125522
   217   1    0.039594531984978025      28.282738386975211      42.403843330107279
   218   1      2.0020929694283112      29.628245789363675      43.846063921603815
   219   1    0.011603559884988053      28.190132772625287      45.302303405625636
   220   1      2.0402472326376282      29.693965370338766      46.817547693744864
   221   1    0.021973876965770026      28.268126398115239      48.106702802234253
   222   1      2.0632314342872742       29.70757613929694      49.603685275803073
   223   1   0.0061501685186670096      28.320651897088787      51.067534320000163
   224   1      2.1237923436973425      29.604845832973322      52.420289388081109
   225   1   0.0067484031106050243      28.253475567488184       53.82109658949269
   226   1       2.081743006537617      29.788124017201149      55.428263739226317
   227   1   -0.052160947976444862      28.240023893903018      56.782260496946371
   228   1      2.0615559637318395      29.621801462506049      58.263750737558603
   229   1    -0.04460511138818702      28.221648384542878      59.638152084049835
   230   1      2.1786834164733229      29.621080900415699      61.098296184248134
   231   1   -0.021125194672439385      28.245839625269134      62.444488684452843
   232   1      4.0662852316164466   0.0026332655630050806      33.807423829925852
   233   1      6.0858492089287903      1.3505748638635231      35.330580509889451
   234   1      4.0560580516269722   -0.075516488519022762      36.735982538758449
   235   1      6.1653984851986756      1.3746185942221556      38.111043559151646
   236   1       4.129711676499868     0.03279828595788567      39.596721138177415
   237   1      6.1387651703159207      1.5023280234271004      41.050828705996871
   238   1      4.0875372407407893    0.063238105711196688      42.438487202137608
   239   1      6.1350496526393368      1.4060160004762086      43.946826080485273
   240   1      4.1921638653965445   -0.019536064627187419      45.271510739712653
   241   1      6.0978160275471716      1.4282017516452503      46.778068416018932
   242   1      4.0610677647032816    0.076641535837797231      48.215674418801989
   243   1       6.180348919317086      1.3716220548361002      49.565606888991667
   244   1      4.0572194938162953    0.028302911869444693      51.059486473204529
   245   1      6.1434665252094991      1.3951754418386209      52.496217831341141
   246   1      4.1434853686535229    0.045534758733671632      53.857406652997057
   247   1      6.1718539485329798      1.4011124503369998      55.349486873729447
   248   1      4.1139439474715083   -0.098121946700315169       56.77567798973287
   249   1      6.0799037395101729      1.4511545190974457      58.219744327800754
   250   1      4.0565798868110416   0.0066567654007304803      59.598003583250531
   251   1      6.2031913782822325      1.4084330422724536      61.064754501024979
   252   1      4.0744022330789109   0.0078082166579035691      62.504958319236074
   253   1      4.0652372163694448      2.8695911500362108      33.782207694828152
   254   1      6.2189074432686855      4.2706078094517945      35.306910738519335
   255   1      4.1943003326159847      2.8174447776860481      36.703861014729846
   256   1      6.1438921972487144      4.2434104629286358      38.133205127236643
   257   1      4.0773595420728697      2.8001019163999006      39.510817393227384
   258   1      6.1803765109303415       4.255729659752447      41.034898874323218
   259   1      3.9926305781142908      2.7929746085422096      42.414162400259031
   260   1      6.2271618095457555      4.2948670086291791      43.929054681221992
   261   1      4.2093083536724434      2.8120398162280007      45.191794813969167
   262   1      6.1526845088428592      4.1940952668686036      46.710068585275259
   263   1      4.0597023041731521      2.7913377511462105      48.256201998002943
   264   1      6.1587667082203676      4.2882501735543768      49.573169805017407
   265   1      4.0383318228729257      2.8353180852602802      51.087439412529569
   266   1       6.186094482183619      4.1973777589794432      52.451225186029731
   267   1      4.0978344460205687      2.8254076496169049      53.934068528979331
   268   1      6.0672907097142996      4.2868720294098521      55.422402047160865
   269   1      4.1877380424731943      2.8688147915434907      56.659413329151455
   270   1      6.1105776624933368      4.1831265257847079      58.188527974317545
   271   1      4.0484368316412853      2.8985184865196478      59.600941144586052
   272   1      6.1340007632024003      4.2326493093001716      61.110280904707345
   273   1      4.0428100258708026      2.8575153029062408       62.46128824876542
   274   1      4.0665608730576466      5.6974886486732226      33.798815299106792
   275   1       6.135771615660933       7.060137070412031      35.204550532796318
   276   1      4.0911543916763717      5.6239537173596084      36.728030188804397
   277   1      6.0895626014474118        7.15273963727567      38.187204188136491
   278   1      4.0960110568492656      5.7746868314333106      39.516470663837218
   279   1      6.1333735127876396      6.9710059678732685      41.081706668710922
   280   1      4.1035453357011065      5.6906732270848677      42.405316104649849
   281   1      6.1094887312763513       7.016789926667534      43.838422616400614
   282   1      4.0849896001385355      5.6161716407032358      45.395880665017536
   283   1      6.0290579636481976      7.0402801635215297       46.74962487769114
   284   1      4.0664441242315696       5.712468969987845      48.225624268928222
   285   1      6.2211891771376084      7.0954902704540652      49.520436003571547
   286   1      4.1511709052135037      5.6801481285821023      51.103276477377982
   287   1      6.1314103728531473      6.9846478492405391      52.378527658274301
   288   1      4.0903969940943972      5.6894253808921649      53.953706973380186
   289   1      6.1117602649191909        6.99937473752545      55.381069829334876
   290   1      4.1769476983198892      5.6875921642357614      56.830017707827324
   291   1      6.1918742435442304      7.0612619785164963      58.219370724430547
   292   1      4.0129415546859173      5.5407449072687127      59.682243026399867
   293   1      6.1501207253581098      7.0322857530168168       61.05232636847164
   294   1      4.1611380879455631      5.7321591113027672      62.564118977498396
   295   1      4.0817266021768628      8.5101812102355332      33.788817801025466
   296   1      6.1423948691507517      9.8748416395984275      35.250532046904439
   297   1      4.1476566053876978      8.5136625199250968      36.733625326557203
   298   1      6.2502909791233314      9.8788081486608501      38.199253455312629
   299   1      4.0740018896337284      8.5356455063127132      39.614210341911857
   300   1      6.1252605066890355      10.019122575936686      41.047506921875254
   301   1      4.0967195949697608      8.4674063641187978      42.459033079808094
   302   1      6.0903099920086383      9.8626269054673799      43.962134659350546
   303   1      4.0793839836298398      8.5576750717953605      45.295774296612954
   304   1      6.1164461950324647      9.8591531989511321       46.74298071619689
   305   1      3.9668039197427305      8.5367103375429956       48.16910446670817
   306   1      6.1600995237985261       9.810152252258753      49.680085986833959
   307   1      4.0607402170248044      8.4549126533994041      50.988753686578676
   308   1      6.0383002646195258      9.8820605141487565      52.452417828135474
   309   1        4.09306977978554      8.3837325402783573      53.946128475769719
   310   1      6.0463420053528898       9.926571447575343      55.334168533215042
   311   1      4.0878990942271951      8.4375126449791047      56.756676724568386
   312   1      6.0883063529938903      9.9224247922254296      58.169928948618384
   313   1      3.9926869533999412      8.4137078971467325      59.595729033292791
   314   1      6.1338900006982122      9.8878250473497999      61.114205614928274
   315   1      4.0701262204537692      8.5329302249913592      62.441492013259825
   316   1      4.0542859138771377       11.24686109028943      33.837108760266247
   317   1      6.1581604924398086      12.661756457257695      35.235465802227885
   318   1      4.1499249669137548      11.372778596822119       36.77110643436815
   319   1      6.1815257117040545      12.703843436254513      38.156678096582773
   320   1      4.1703235448048739      11.251658668950428      39.562692738375837
   321   1      6.1600593951486555      12.655090457799625      41.063434913860149
   322   1      4.0865665918333542      11.269974768357715      42.472654612354354
   323   1      6.1905933553777848      12.769019286600034      43.819788098782119
   324   1       4.089715475710638      11.311484135772471       45.30218121084792
   325   1      6.1950909261448732      12.737329036295877      46.654118930285946
   326   1      4.0966675060702196      11.260987355557566      48.146326825508858
   327   1      6.1767216993021483      12.691587522761436      49.595879732320817
   328   1      4.0742419709463755      11.318878585230776       51.03042890880451
   329   1      6.2347231699085377      12.674942410782396      52.423999061981107
   330   1      4.0741909052949037       11.34550368353065      53.876253628557329
   331   1      6.1469891670258354       12.58535164663666      55.311921280955595
   332   1      4.0860996356223547      11.303667526207395        56.7921537733272
   333   1      6.2190686835876763      12.668397856706932      58.231984049138504
   334   1      4.0459478017011756      11.286665378370866      59.702422565826602
   335   1      6.1313232539792599      12.704603429669914      61.123945582753748
   336   1        4.06086929187469      11.261306445517931      62.527068738031474
   337   1      4.1627534603039313      14.060838154764243      33.876959494090251
   338   1      6.1935364036855081      15.572963485347207      35.213133552507415
   339   1      4.1640598297427509      14.107076122790913      36.708342385988139
   340   1      6.1249419092992667       15.56406714255588      38.213458269764544
   341   1      4.1423962406137909      14.174819840244837      39.692144592957725
   342   1      6.1678201671551101      15.543762056902381      41.050291509482847
   343   1      4.1022320284144351      14.102712940444357      42.435050386515229
   344   1       6.179112071210688      15.490553278460403      43.838244446891707
   345   1      4.0881558574819712      14.136346096176768      45.308235710537694
   346   1      6.1737557665282932       15.49171449774421      46.688992206831841
   347   1      4.0431145867248972      14.143624085511691      48.130327343669009
   348   1      6.1717019936159714      15.465097285916803      49.486629700670356
   349   1      4.0310417209110856      14.052139572342346      51.045767039023922
   350   1      6.1406243955450694      15.496649165896455      52.502601901105884
   351   1      4.1413722392909307      14.138248077507642      53.856628228921466
   352   1      6.0900136366356792      15.542442311040466      55.327313302723091
   353   1      4.1215499105439566      14.180448393866145      56.711791508726499
   354   1      6.1329660465944675      15.520550806864367       58.14993140926974
   355   1      4.1338368052426508      14.098486956055899      59.683534896761536
   356   1      6.2086855991173913      15.479693216307686      60.995513215403989
   357   1      4.1187718865477363      14.146148259272461      62.531098509890114
   358   1      4.1085248536223196      16.966683058429179      33.777537336585659
   359   1      6.1153030135897355      18.371006167651547      35.344925354842545