LAMMPS (10 Dec 2025)
OMP_NUM_THREADS environment is not set. Defaulting to 1 thread.
  using 1 OpenMP thread(s) per MPI task
units metal
boundary p p s
atom_style atomic
timestep 0.002
read_data data.interface
Reading data file ...
  orthogonal box = (0 0 0) to (28.615 31.066736 64.493363)
  1 by 1 by 4 MPI processor grid
  reading atoms ...
  3921 atoms
  read_data CPU = 0.013 seconds

pair_style eam/alloy
pair_coeff * * /mnt/c/Users/iwash/Documents/Repositories/Lammps/potentials/AlCu.eam.alloy Al Cu
Reading eam/alloy potential file /mnt/c/Users/iwash/Documents/Repositories/Lammps/potentials/AlCu.eam.alloy with DATE: 2008-10-01

neighbor 2.0 bin
neigh_modify delay 10 check yes

thermo 100
thermo_style custom step temp pe press pxx pyy lx ly lz

print '=== Phase 0: Shake (High-T limit) ==='
=== Phase 0: Shake (High-T limit) ===
velocity all create 1000.0 33778 dist gaussian
fix shake all nve/limit 0.1
run 1000
Neighbor list info ...
  update: every = 1 steps, delay = 10 steps, check = yes
  max neighbors/atom: 2000, page size: 100000
  master list distance cutoff = 8.6825
  ghost atom cutoff = 8.6825
  binsize = 4.34125, bins = 7 8 14
  1 neighbor lists, perpetual/occasional/extra = 1 0 0
  (1) pair eam/alloy, perpetual
      attributes: half, newton on
      pair build: half/bin/atomonly/newton
      stencil: half/bin/3d
      bin: standard
Per MPI rank memory allocation (min/avg/max) = 3.491 | 3.716 | 3.947 Mbytes
   Step          Temp          PotEng         Press           Pxx            Pyy             Lx             Ly             Lz      
         0   1000          -13240.617      12479.43       12262.001      10593.789      28.615         31.066736      60.762918    
       100   639.68162     -13058.421      17250.787      18175.429      22952.194      28.615         31.066736      62.425301    
       200   612.47667     -13044.514      6488.4056      7256.4749      15316.05       28.615         31.066736      63.411505    
       300   609.02079     -13042.652      633.10921      1960.7224      10963.44       28.615         31.066736      63.654773    
       400   602.65035     -13039.399      4407.9788      4722.8884      14364.9        28.615         31.066736      63.539353    
       500   604.98104     -13040.541      887.48822      544.61792      11053.81       28.615         31.066736      64.079329    
       600   597.70337     -13036.882     -296.37302      79.128685      9714.6698      28.615         31.066736      64.547801    
       700   610.42461     -13043.332      1970.1867      2110.9105      10495.458      28.615         31.066736      64.47558     
       800   627.95761     -13052.294      7007.674       7531.6885      14162.313      28.615         31.066736      64.408663    
       900   626.26504     -13051.507      11313.979      11802.576      18114.93       28.615         31.066736      63.793157    
      1000   637.76003     -13057.418      7501.0878      8777.7959      16851.356      28.615         31.066736      63.044641 Pair    | 1.5869     | 1.9217     | 2.2325     |  21.0 | 81.14
Neigh   | 0.02904    | 0.051777   | 0.069868   |   7.6 |  2.19
Comm    | 0.055633   | 0.37809    | 0.72621    |  49.6 | 15.96
Output  | 0.0002444  | 0.00031981 | 0.0005106  |   0.0 |  0.01
Modify  | 0.0047311  | 0.0055209  | 0.006294   |   1.0 |  0.23
Other   |            | 0.01106    |            |       |  0.47

Nlocal:         980.25 ave        1152 max         782 min
Histogram: 1 1 0 0 0 0 0 0 0 2
Nghost:           3498 ave        4319 max        2425 min
Histogram: 1 0 0 0 1 0 0 0 1 1
Neighs:          89896 ave      122534 max       49841 min
Histogram: 1 0 1 0 0 0 0 0 0 2

Total # of neighbors = 359584
Ave neighs/atom = 91.707218
Neighbor list builds = 32
Dangerous builds = 0
=== Phase 1: 0K Relaxation ===
Switching to 'neigh_modify every 1 delay 0 check yes' setting during minimization
Setting up cg style minimization ...
  Unit style    : metal
  Current step  : 1000
WARNING: Energy due to 3 extra global DOFs will be included in minimizer energies
 (src/min.cpp:222)
Per MPI rank memory allocation (min/avg/max) = 4.616 | 4.841unfix shake
velocity all set 0 0 0

# x,y方向の箱寸法 + 原子位置を同時最適化（z方向はshrink-wrap）
print '=== Phase 1: 0K Relaxation ==='
=== Phase 1: 0K Relaxation ===
fix relax all box/relax x 0.0 y 0.0 vmax 0.001
minimize 1.0e-8 1.0e-10 10000 100000
Switching to 'neigh_modify every 1 delay 0 check yes' setting during minimization
WARNING: Energy due to 3 extra global DOFs will be included in minimizer energies
 (src/min.cpp:222)
Per MPI rank memory allocation (min/avg/max) = 4.616 | 4.841 | 5.073 Mbytes
   Step          Temp          PotEng         Press           Pxx            Pyy             Lx             Ly             Lz      
      1000   0             -13057.418      1342.3809      2907.2163      10511.841      28.615         31.066736      63.044641    
      1100   0             -13130.988     -3112.6475      1038.8717      1049.9879      28.291713      31.296365      63.044641    
      1200 Loop time of 1.56905 on 4 procs for 465 steps with 3921 atoms

103.0% CPU use with 4 MPI tasks x 1 OpenMP threads

Minimization stats:
  Stopping criterion = linesearch alpha is zero
  Energy initial, next-to-last, final = 
     -13057.4175397653  -13264.0232404868  -13264.0232404868
  Force two-norm initial, final = 385.92438 27.716533
  Force max component initial, final = 367.71047 13.870058
  Final line search alpha, max atom move = 8.5947218e-12 1.1920929e-10
  Iterations, force evaluations = 465 592

MPI task timing breakdown:
Section |  min time  |  avg time  |  max time  |%varavg| %total
---------------------------------------------------------------
Pair    | 1.5072     | 1.5076     | 1.5081     |   0.0 | 96.08
Neigh   | 0          | 0          | 0          |   0.0 |  0.00
Comm    | 0.018822   | 0.019422   | 0.019877   |   0.3 |  1.24
Output  | 7.9934e-05 | 0.00010243 | 0.00016814 |   0.0 |  0.01
Modify  | 0          | 0          | 0          |   0.0 |  0.00
Other   |            | 0.04191    |            |       |  2.67

Nlocal:         980.25 ave        1152 max         782 min
Histogram: 1 1 0 0 0 0 0 0 0 2
Nghost:           3498 ave        4319 max        2425 min
Histogram: 1 0 0 0 1 0 0 0 1 1
Neighs:          89896 ave      122534 max       49841 min
Histogram: 1 0 1 0 0 0 0 0 0 2

Total # of neighbors = 359584
Ave neighs/atom = 91.707218
Neighbor list builds = 0
Dangerous builds = 0
=== Phase 2: Annealing at 600.0K for 10.0ps ===
Setting up Verlet run ...
  Unit style    : metal
  Current step  : 0
  Time step     : 0.002
Per MPI rank memory allocation (min/avg/max) = 3.491 | 3.716 | 3.948 Mbytes
   Step          Temp          PotEng         Press           Pxx            Pyy             Lx             Ly             Lz      
         0   600           -13264.023      1278.8981      6211.4064      6075.746       27.993365      31.209499      62.933061    
       100   447.5051      -13132.9unfix relax

# 界面近傍の原子配置を緩和（ミスフィット軽減）
print '=== Phase 2: Annealing at 600.0K for 10.0ps ==='
=== Phase 2: Annealing at 600.0K for 10.0ps ===
reset_timestep 0
velocity all create 600.0 33778 dist gaussian
fix ann all npt temp 600.0 600.0 0.1 x 0.0 0.0 1.0 y 0.0 0.0 1.0
run 5000
Per MPI rank memory allocation (min/avg/max) = 3.491 | 3.716 | 3.948 Mbytes
   Step          Temp          PotEng         Press           Pxx            Pyy             Lx             Ly             Lz      
         0   600           -13264.023      1278.8981      6211.4064      6075.746       27.993365      31.209499      62.933061    
       100   447.5051      -13132.92      -5953.2392     -3197.0052     -5516.9943      28.375367      31.551271      63.497368    
       200   527.12455     -13094.824      346.22803      1639.3772      470.76638      28.514713      31.493896      62.937502    
       300   586.41347     -13054.229      2760.7395      2467.2717      2041.5635      28.747431      31.428218      63.158527    
       400   614.4701      -13035.968     -1230.5422     -1151.2674     -2243.3473      28.97428       31.409009      62.887327    
       500   596.65154     -13048.889      1566.6008      1466.7538      2278.9001      28.954641      31.363581      62.556446    
       600   590.98827     -13065.851     -628.67919     -283.249       -1536.7789      28.982466      31.4164        62.003049    
       700   613.30865     -13065.09      -965.45858     -692.19876     -1387.2457      29.053692      31.376924      62.301948    
       800   607.99164     -13053.578      1488.7311      1462.1235      663.09367      29.085989      31.380802      62.284313    
       900   593.07515     -13057.314      871.08046     -401.71723     -1652.1647      29.179017      31.397292      62.146983    
      1000   590.40049     -13059.383      2251.9522      247.18505     -356.11941      29.332785      31.288231      61.801966    
      1100   618.05        -13051.871      924.31458     -564.00344      1818.1972      29.39568       31.203071      62.157857    
      1200   599.59726     -13051.845     -704.47034     -1396.7839     -553.62757      29.219962      31.290441      62.302514    
      1300   590.30361     -13063.205     -851.43331     -314.74318     -1208.6466      29.029658      31.408998      62.145403    
      1400   609.65575     -13062.523      844.63976      1868.8193      456.9794       28.956227      31.422937      63.031478    
      1500   600.38794     -13050.124     -1366.525      -983.80624     -452.68395      29.050452      31.364706      63.536052    
      1600   598.09019     -13058.402     -1706.9543     -1614.0739     -854.11745      29.013034      31.34827       62.891977    
      1700   602.51689     -13051.279      1175.0629      1649.1704      402.46987      28.89461       31.434664      62.7807      
      1800   608.43117     -13048.213     -1219.9849     -1299.6218     -1633.1823      28.917981      31.467944      62.570861    
      1900   597.84804     -13059.745     -1549.9787     -77.793186      424.15781      28.886265      31.373017      62.450987    
      2000   598.59683     -13059.74      -1164.2589      549.00738      501.99389      28.805432      31.440039      62.663187    
      2100   611.42746     -13054.67      -431.67708      848.91308     -1717.222       28.780      2700   597.51727     -13060.468      1063.9203      558.29431      776.46651      29.109323      31.383627      62.488428    
      2800   606.34641     -13067.101      1516.5827      1459.4078      704.89743      29.107052      31.359552      62.194793    
      2900   595.6433      -13049.463     -677.99853     -1311.6677     -1392.5164      29.231956      31.379207      62.428031    
      3000   616.41294     -13057.537      1320.1649      68.595142      1704.8112      29.22428       31.285091      62.129292    
      3100   597.10522     -13060.967     -531.56608     -1477.4866      277.44861      29.148973      31.348075      62.441327    
      3200   609.42768     -13061.403       2700   597.51727     -13060.468      1063.9203      558.29431      776.46651      29.109323      31.383627      62.488428    
      2800   606.34641     -13067.101      1516.5827      1459.4078      704.89743      29.107052      31.359552      62.194793    
      2900   595.6433      -13049.463     -677.99853     -1311.6677     -1392.5164      29.231956      31.379207      62.428031    
      3000   616.41294     -13057.537      1320.1649      68.595142      1704.8112      29.22428       31.285091      62.129292    
      3100   597.10522     -13060.967     -531.56608     -1477.4866      277.44861      29.148973      31.348075      62.441327    
      3200   609.42768     -13061.403     -836.45863      7.5985885     -1221.9475      28.994798      31.448442      62.735175    
      3300   614.49011     -13053.976      841.2631       1556.8224      413.55778      28.955425      31.449702      63.009178    
      3400   594.37409     -13058.937     -1031.409      -671.11983     -620.06656      29.029453      31.384395      63.220014    
      3500   598.01218     -13057.262      46.998497      974.13728      1300.1699      29.021317      31.34386       62.985371    
      3600   612.54025     -13055.64      -58.241112      115.086        653.09454      29.010703      31.374998      63.200368    
      3700   591.20157     -13046.985     -744.64165     -13.219235     -604.19973      29.01694       31.393361      63.332       
      3800   603.85268     -13064.721      453.41661      640.15029      1440.0372      29.016891      31.335527      62.945191    
      3900   598.24307     -13055.887     -1350.4857     -1450.3589      471.94623      29.085765      31.336242      62.98888     
      4000   611.3996      -13055.371     -726.61335     -496.33698     -902.68825      29.051343      31.390227      63.013363    
      4100   598.1773      -13059.068      1982.9989      2138.7854      2149.3773      29.004123      31.406504      62.522568    
      4200   591.99688     -13055.914      67.764022     -24.179479     -717.27466      29.112142      31.404371      62.253217    
      4300   602.37972     -13052.347      823.79734     -671.24221      1497.4698      29.247426      31.317626      62.00295     
      4400   602.42863     -13059.891      1213.8097      287.39816      1036.8426      29.230      5000   594.72047     -13056.46      -490.86954      48.658643     -1094.7382      29.087626      31.381818      62.369222    
Loop time of 12.1506 on 4 procs for 5000 steps with 3921 atoms

Performance: 71.108 ns/day, 0.338 hours/ns, 411.503 timesteps/s, 1.614 Matom-step/s
103.5% CPU use with 4 MPI tasks x 1 OpenMP threads

MPI task timing breakdown:
Section |  min time  |  avg time  |  max time  |%varavg| %total
---------------------------------------------------------------
Pair    | 7.7742     | 9.6331     | 11.414     |  49.1 | 79.28
Neigh   | 0.13376    | 0.25187    | 0.33593    |  17.2 |  2.07
Comm    | 0.19743    | 2.0518     | 4.0127     | 111.8 | 16.89
Output  | 0.0010527  | 0.0013707  | 0.0022821  |   1.4 |  0.01
Modify  | 0.16297    | 0.17906    | 0.19142    |   2.5 |  1.47
Other   |            | 0.03338    |            |       |  0.27

Nlocal:         980.25 ave        1155 max         770 min
Histogram: 1 1 0 0 0 0 0 0 0 2
Nghost:        3408.25 ave        4304 max        2254 min
Histogram: 1 0 0 0 1 0 0 1 0 1
Neighs:          88904 ave      122771 max       47869 min
Histogram: 1 0 1 0 0 0 0 0 0 2

Total # of neighbors = 355616
Ave neighs/atom = 90.695231
Neighbor list builds = 157
Dangerous builds = 0
=== Phase 2b: Cooling 600.0K -> 300.0K ===
Setting up Verlet run ...
  Unit style    : metal
  Current step  : 5000
  Time step     : 0.002
Per MPI rank memory allocation (min/avg/max) = 3.491 | 3.716 | 3.948 Mbytes
   Step          Temp          PotEng         Press           Pxx            Pyy             Lx             Ly             Lz      
      5000   594.72047     -13056.46      -490.47372      48.619406     -1093.8555      29.087626      31.381818      62.419556    
      5100   589.06272     -13056.529      267.53306      376.79137      1172.4884      29.060312      31.338978      62.602941    
      5200   582.77945     -13064.971      326.92575      1337.0851      733.58862    unfix ann

print '=== Phase 2b: Cooling 600.0K -> 300.0K ==='
=== Phase 2b: Cooling 600.0K -> 300.0K ===
fix cool all npt temp 600.0 300.0 0.1 x 0.0 0.0 1.0 y 0.0 0.0 1.0
run 5000
Per MPI rank memory allocation (min/avg/max) = 3.491 | 3.716 | 3.948 Mbytes
   Step          Temp          PotEng         Press           Pxx            Pyy             Lx             Ly             Lz      
      5000   594.72047     -13056.46      -490.47372      48.619406     -1093.8555      29.087626      31.381818      62.419556    
      5100   589.06272     -13056.529      267.53306      376.79137      1172.4884      29.060312      31.338978      62.602941    
      5200   582.77945     -13064.971      326.92575      1337.0851      733.58862      28.944167      31.393838      62.638653    
      5300   564.80122     -13068.245     -1259.2892      355.84574     -1882.84        28.882296      31.491589      62.115619    
      5400   572.79228     -13071.449      1006.5596      2070.3388      1836.8363      28.938001      31.358234      62.877202    
      5500   562.35827     -13071.852     -1569.3663     -998.56527     -549.25644      29.112319      31.311063      62.589078    
      5600   558.30388     -13082.206      1036.4441      301.99726      2587.555       29.123094      31.233748      62.385834    
      5700   556.44969     -13081.287      520.36946      255.20305      539.66445      29.087324      31.319532      62.194982    
      5800   552.3587      -13090.918     -732.26771     -591.67246     -1944.9331      29.062621      31.371554      62.314842    
      5900   558.10109     -13097.911      783.64531      445.27959      921.72249      29.081293      31.307957      62.516742    
      6000   542.90631     -13098.859     -756.49748     -652.62437     -1161.408       29.178548      31.292071      62.364019    
      6100   533.30666     -13100.098      867.49377      186.85985      1476.7705      29.190891      31.239178      61.793577    
      6200   534.0228      -13109.672      641.57373      25.556555     -545.10022      29.147233      31.284148      62.098326    
      6300   517.24754     -13108.558      399.63664     -336.12675     -508.30165      29.105837      31.315976      62.215062    
      6400   514.25462     -13114.712      658.39336      405.02382      118.81776      29.077383      31.305969      62.377155    
      6500   505.18726     -13122.859      438.113        901.53455      481.57485      29.078619      31.235603      62.296534    
      6600   510.18712     -13118.508     -1402.2522     -1945.5489     -471.67256      29.118054      31.250696      62.253026    
      6700   499.5874      -13123.9        777.95298      1242.0178     -19.687186      28.9505        31.339392      62.097083    
      6800   490.06849     -13124.162      559.29608      1139.2519     -511.01204      28.898864      31.34975       62.144751    
      6900   481.48509     -13127.022     -934.28689     -1488.3893      332.47945      29.031155      31.239255      62.380096    
      7000   481.33552     -13133.952     -860.73935     -947.52986      1271.094       29.044726      31.172484      62.267928    
      7100   476.01824     -13143.454     -823.09937      154.30307     -1247.7765      28.89234       31.304932      62.431044    
      7200   458.11025     -13137.485      395.78199        7800   429.8076      -13164.111     -930.46062     -2211.9819     -452.83484      29.139394      31.190994      61.849332    
      7900   431.3878      -13170.106      1724.3715      775.46929      847.25493      29.024626      31.229777      61.611811    
      8000   420.35903     -13172.081     -25.934003     -470.77145     -1197.5961      28.992557      31.282499      61.906606    
      8100   405.50428     -13169.804      137.28483     -441.15443     -760.25477      29.045401      31.224869      61.492036    
      8200   407.73485     -13173.789      755.0457       252.18641      2118.0743      29.075362      31.12062       61.729346    
      8300   405.1775      -13181.304     -1341.7463     -1171.6156     -1477.7465      28 429.8076      -13164.111     -930.46062     -2211.9819     -452.83484      29.139394      31.190994      61.849332    
      7900   431.3878      -13170.106      1724.3715      775.46929      847.25493      29.024626      31.229777      61.611811    
      8000   420.35903     -13172.081     -25.934003     -470.77145     -1197.5961      28.992557      31.282499      61.906606    
      8100   405.50428     -13169.804      137.28483     -441.15443     -760.25477      29.045401      31.224869      61.492036    
      8200   407.73485     -13173.789      755.0457       252.18641      2118.0743      29.075362      31.12062       61.729346    
      8300   405.1775      -13181.304     -1341.7463     -1171.6156     -1477.7465      28.993968      31.214762      62.068408    
      8400   397.79172     -13184.895      674.71267      1985.4205      37.609877      28.826167      31.276347      62.118288    
      8500   394.35658     -13188.614     -569.33964      152.02551     -426.41714      28.846963      31.254935      61.903949    
      8600   381.18965     -13189.197     -511.15073     -75.814287      442.60461      28.928062      31.170082      61.838065    
      8700   379.57118     -13192.536      95.563607      206.01717      1403.9763      28.902514      31.176131      61.835988    
      8800   373.38812     -13197.177     -756.99762     -173.49947     -1319.8277      28.823916      31.271254      62.258787    
      8900   370.43119     -13201.67       607.79056      1081.5927     -63.585336      28.817562      31.255381      62.171904    
      9000   361.02071     -13204.736      567.47778      504.19877      932.88322      28.912092      31.166408      61.742767    
      9100   352.50755     -13208.345      213.51489      365.50897      587.88515      28.952967      31.150341      61.92435     
      9200   351.51673     -13213.481      397.60574      619.4142       144.03508      28.941453      31.171143      61.555358    
      9300   343.33948     -13214.616      646.19246      584.4352      -23.37001       28.945895      31.162531      61.522023    
      9400   336.18068     -13217.156      661.43085      84.630113      168.89604      28.995704      31.14479       61.502299    
      9500   329.44025     -13220.545      555.02201     -609.35308      672.28833      28.975942      31.134185      61.428472    
      9600   326.47235     -13226.947      163.192       -94.244531     -678.84135      28.908674      31.188669      61.444127    
      9700   316.35147     -13229.024      792.82505      998.24776      379.18393      28.87844       31.17443       61.47235     
      9800   316.75284     -13235.128     -31.738273     -713.13624      696.21057      28.916598      31.120938      61.47235     
      9900   305.08756     -13235.036     -5.4710078      107.86602   Output  | 0.001079   | 0.0014078  | 0.0023664  |   1.5 |  0.01
Modify  | 0.16476    | 0.21153    | 0.31044    |  12.6 |  1.74
Other   |            | 0.03615    |            |       |  0.30

Nlocal:         980.25 ave        1152 max         770 min
Histogram: 1 0 1 0 0 0 0 0 0 2
Nghost:        3415.25 ave        4236 max        2288 min
Histogram: 1 0 0 0 1 0 0 0 1 1
Neighs:        91025.2 ave      125517 max       49160 min
Histogram: 1 0 1 0 0 0 0 0 0 2

Total # of neighbors = 364101
Ave neighs/atom = 92.85922
Neighbor list builds = 120
Dangerous builds = 0
=== Phase 3: Define Grips ===
384 atoms in group bottom
231 atoms in group top
3306 atoms in group mobile
Bottom grip: 384 atoms
Top grip:    231 atoms
Mobile:      3306 atoms
=== Phase 4: Equilibration with Grips ===
Setting up Verlet run ...
  Unit style    : metal
  Current step  : 0
  Time step     : 0.002
Per MPI rank memory allocation (min/avg/max) = 3.491 | 3.716 | 3.948 Mbytes
   Step          Temp          PotEng         Press           Pxx            Pyy             Lx             Ly             Lz      
         0   255.53653     -13239.407     -169.50387      223.06656     -7.13134        28.817942      31.155696      61.849326    
       100   275.12967     -13229.31      -333.74077     -245.14668     -295.29807    unfix cool

# 焼きなまし後の座標を基準にグリップ領域を定義
print '=== Phase 3: Define Grips ==='
=== Phase 3: Define Grips ===
variable zmin equal bound(all,zmin)
variable zmax equal bound(all,zmax)
variable grip_thick equal 5.0
variable zlo_grip equal ${zmin}+${grip_thick}
variable zlo_grip equal 1.79896360346859+${grip_thick}
variable zlo_grip equal 1.79896360346859+5
variable zhi_grip equal ${zmax}-${grip_thick}
variable zhi_grip equal 63.6353913306513-${grip_thick}
variable zhi_grip equal 63.6353913306513-5

region rgn_bot block INF INF INF INF INF ${zlo_grip}
region rgn_bot block INF INF INF INF INF 6.79896360346859
region rgn_top block INF INF INF INF ${zhi_grip} INF
region rgn_top block INF INF INF INF 58.6353913306513 INF
group bottom region rgn_bot
384 atoms in group bottom
group top region rgn_top
231 atoms in group top
group mobile subtract all bottom top
3306 atoms in group mobile

print 'Bottom grip: $(count(bottom)) atoms'
Bottom grip: 384 atoms
print 'Top grip:    $(count(top)) atoms'
Top grip:    231 atoms
print 'Mobile:      $(count(mobile)) atoms'
Mobile:      3306 atoms

print '=== Phase 4: Equilibration with Grips ==='
=== Phase 4: Equilibration with Grips ===
reset_timestep 0
velocity bottom set 0.0 0.0 0.0
velocity top set 0.0 0.0 0.0
# グリップ: nve（時間積分）+ setforce 0（力ゼロ）→ 等速運動
fix nve_bot bottom nve
fix nve_top top nve
fix freeze_bot bottom setforce 0.0 0.0 0.0
fix freeze_top top setforce 0.0 0.0 0.0
fix eq mobile npt temp 300.0 300.0 0.1 x 0.0 0.0 1.0 y 0.0 0.0 1.0
run 5000
Per MPI rank memory allocation (min/avg/max) = 3.491 | 3.716 | 3.948 Mbytes
   Step          Temp          PotEng         Press           Pxx            Pyy             Lx             Ly             Lz      
         0   255.53653     -13239.407     -169.50387      223.06656     -7.13134        28.817942      31.155696      61.849326    
       100   275.12967     -13229.31      -333.74077     -245.14668     -295.29807      28.830299      3      1700   297.04175     -13221.823      228.62514      441.03524      300.36492      28.820264      31.202083      61.849326    
      1800   305.3759      -13219.657     -809.64895     -1144.2501     -103.3424       28.886719      31.181629      61.849326    
      1900   300.18397     -13219.203     -1620.1478     -1175.3124     -1948.2325      28.889106      31.20882       61.849326    
      2000   286.44277     -13218.101     -1203.1747     -1086.6883     -1164.8455      28.888416      31.195358      61.849326    
      2100   298.48997     -13216.942     -1063.5669     -1052.8538     -617.00352      28.916582      31.171831      61.849326    
      2200   305.57666     -13220.49       199.54174      232.62893      221.91221      28.882634      31.158885      61.849326    
      2300   294.56268     -13219.93       1610.7918      2385.3982      1670.7911      28.833071      31.163151      61.849326    
      2400   303.45448     -13220.083      1285.7447      1403.5333      2097.7878      28.854668      31.143297      61.849326    
      2500   302.25548     -13218.125      820.0852       988.42207      1219.3385      28.832551      31.187087      61.849326    
      2600   298.47537     -13221.035     -482.30705     -578.89795      161.92074      28.854547      31.18821       61.849326    
      2700   300.83175     -13218.465     -1378.0216     -790.50696     -1760.6345      28.867873      31.213654      61.849326    
      2800   299.0304      -13213.151     -1971.8106     -1537.1215     -1900.5611      28.906096      31.209832      61.849326    
      2900   301.63863     -13221.045     -2368.6784     -2607.1326     -1797.5338      28.926008      31.182331      61.849326    
      3000   302.35516     -13219.356     -938.86088     -325.59359     -1948.763       28.839472      31.239999      61.849326    
      3100   300.90276     -13213.956     -206.13151     -326.1188       348.50374      28.903811      31.170046      61.849326    
      3200   296.76857     -13220.171      877.76262      1384.6804      933.7579       2803524      300.36492      28.820264      31.202083      61.849326    
      1800   305.3759      -13219.657     -809.64895     -1144.2501     -103.3424       28.886719      31.181629      61.849326    
      1900   300.18397     -13219.203     -1620.1478     -1175.3124     -1948.2325      28.889106      31.20882       61.849326    
      2000   286.44277     -13218.101     -1203.1747     -1086.6883     -1164.8455      28.888416      31.195358      61.849326    
      2100   298.48997     -13216.942     -1063.5669     -1052.8538     -617.00352      28.916582      31.171831      61.849326    
      2200   305.57666     -13220.49       199.54174      232.62893      221.91221      28.882634      31.158885      61.849326    
      2300   294.56268     -13219.93       1610.7918      2385.3982      1670.7911      28.833071      31.163151      61.849326    
      2400   303.45448     -13220.083      1285.7447      1403.5333      2097.7878      28.854668      31.143297      61.849326    
      2500   302.25548     -13218.125      820.0852       988.42207      1219.3385      28.832551      31.187087      61.849326    
      2600   298.47537     -13221.035     -482.30705     -578.89795      161.92074      28.854547      31.18821       61.849326    
      2700   300.83175     -13218.465     -1378.0216     -790.50696     -1760.6345      28.867873      31.213654      61.849326    
      2800   299.0304      -13213.151     -1971.8106     -1537.1215     -1900.5611      28.906096      31.209832      61.849326    
      2900   301.63863     -13221.045     -2368.6784     -2607.1326     -1797.5338      28.926008      31.182331      61.849326    
      3000   302.35516     -13219.356     -938.86088     -325.59359     -1948.763       28.839472      31.239999      61.849326    
      3100   300.90276     -13213.956     -206.13151     -326.1188       348.50374      28.903811      31.170046      61.849326    
      3200   296.76857     -13220.171      877.76262      1384.6804      933.7579       28.869274      3      4800   295.56421     -13216.05      -1110.5289     -260.1273      -1900.6765      28.822958      31.255133      61.849326    
      4900   298.13108     -13219.309     -1056.2637     -724.53812     -282.29965      28.905236      31.159503      61.849326    
      5000   297.24057     -13215.293      64.630562      665.22268      240.1152       28.867318      31.18206       61.849326    
Loop time of 12.1029 on 4 procs for 5000 steps with 3921 atoms

Performance: 71.388 ns/day, 0.336 hours/ns, 413.125 timesteps/s, 1.620 Matom-step/s
103.6% CPU use with 4 MPI tasks x 1 OpenMP threads

MPI task timing breakdown:
Section |  min time  |  avg time  |  max time  |%varavg| %total
---------------------------------------------------------------
Pair    | 7.8566     | 9.7702     | 11.46      |  48.4 | 80.73
Neigh   | 0.042902   | 0.07814    | 0.10522    |   9.2 |  0.65
Comm    | 0.28963    | 1.9718     | 3.842      | 107.4 | 16.29
Output  | 0.0010513  | 0.0014611  | 0.002642   |   1.8 |  0.01
Modify  | 0.20353    | 0.24007    | 0.31209    |   8.6 |  1.98
Other   |            | 0.04122    |            |       |  0.34

Nlocal:         980.25 ave        1152 max         770 min
Histogram: 1 0 1 0 0 0 0 0 0 2
Nghost:        3416.75 ave        4223 max        2314 min
Histogram: 1 0 0 0 1 0 0 0 1 1
Neighs:          90778 ave      125068 max       49103 min
Histogram: 1 0 1 0 0 0 0 0 0 2

Total # of neighbors = 363112
Ave neighs/atom = 92.606988
Neighbor list builds = 48
Dangerous builds = 0
=== Phase 5: Tensile Test ===
Initial grip distance L0 = 56.6644112816134 Ang
Pull velocity = 0.113328822563227 Ang/ps (erate=0.002/ps)
Setting up Verlet run ...
  Unit style    : metal
  Current step  : 0
  Time step     : 0.002
Per MPI rank memory allocation (min/avg/max) = 4.991 | 5.216 | 5.448 Mbytes
   Step          Temp         v_strain     v_stress_zz        Pxx            Pyy             Lx             Ly           v_Lmat    
         0   297.24876     -1.2539489e-16  0.077628443    665.22268      240.1152       28.867318      31.18206       56.664411    
       100   282.28941      0.0004         0.25371657    -1970.6555     -2173.3936      28.867318      31.18206       56.687077    
       200   254.83725      0.0008         0.49446586    -3370.8253     -3369.9797      28.867318      31.18206       56.709743    
       300   243.29562      0.0012         0.50735728    -3642.1578     -3558.6764      28.867318      31.18206       56.732409    
       400   260.40463      0.0016         0.51181474    -3715.1687     -3391.9503      28.867318      31.18206       56.755074    
       500   256.84624      0.002          0.62816666    -4021.7386     -3655.156       28.867318      31.18206       56.77774     
       600   248.79685      0.0024         0.73375765    -5233.8106     -4458.9963      28.867318      31.18206       56.800406    
       700   253.81919      0.0028         0.73815944    -4979.4146     -3894.8673      28.867318      31.18206       56.823072    
       800   253.22434      0.0032         0.82170151    -5300.1868     -4359.6876      28.867318      31.18206       56.845737    
       900   250.39859      0.0036         0.95465587    -6025.1592     -4855.4575      28.867318      31.18206       56.868403    
      1000   248.6057       0.004          0.91109522    -5818.4256     -4486.2007      28.867318      31.18206       56.891069    
      1100   256.49928      0.0044         0.9157596     -5846.4897     -4777.8315      28.867318      31.18206       unfix eq

print '=== Phase 5: Tensile Test ==='
=== Phase 5: Tensile Test ===
reset_timestep 0

# グリップ重心間距離で初期材料長を定義
variable zcm_bot equal xcm(bottom,z)
variable zcm_top equal xcm(top,z)
variable tmp_L equal v_zcm_top-v_zcm_bot
variable L0 equal ${tmp_L}
variable L0 equal 56.6644112816134
print 'Initial grip distance L0 = ${L0} Ang'
Initial grip distance L0 = 56.6644112816134 Ang

# 引っ張り速度 = erate × L0
variable vpull equal 0.002*v_L0
velocity top set 0.0 0.0 ${vpull}
velocity top set 0.0      1600   252.92592      0.0064         1.0581244     -6621.4028     -5219.2118      28.867318      31.18206       57.027064    
      1700   258.15153      0.0068         1.2481286     -7892.9797     -5907.8853      28.867318      31.18206       57.049729    
      1800   254.58294      0.0072         1.2174759     -8065.5768     -6475.7806      28.867318      31.18206       57.072395    
      1900   257.00947      0.0076         1.3240122     -8836.7602     -6676.5774      28.867318      31.18206       57.095061    
      2000   260.36865      0.008          1.2729522     -8633.6096     -6541.9249      28.867318      31.18206       57.117727    
      2100   253.60485      0.0084         1.3706323     -8972.1361     -6766.3342      28.867318      31.18206       57.140392    
      2200   255.60974      0.0088         1.4141157     -9252.6901     -7006.0455      28.867318      31.18206       57.163058    
      2300   254.58409      0.0092         1.330225      -9250.279      -7044.0727      28.867318      31.18206       57.185724    
      2400   253.21656      0.0096         1.4434992     -9233.9311     -6699.6288      28.867318      31.18206       57.20839     
      2500   246.96714      0.01           1.5062464     -9496.0205     -7244.182       28.867318      31.18206       57.231055    
      2600   257.32527      0.0104         1.4361304     -9703.5426     -7459.3876      28.867318      31.18206       57.253721    
      2700   254.99848      0.0108         1.5801855     -10161.827     -7464.5722      28.867318      31.18206       57.276387    
      2800   253.41509      0.0112         1.67602       -11087.448     -8280.0548      28.867318      31.18206       57.299053    
      2900   259.79418      0.0116         1.6387373     -10896.664     -7807.7302      28.867318      31.18206       57.321718    
      3000   253.35014      0.012          1.7292275     -11645.013     -8450.3753      28.867318      31.18206       57.344384    
      3100   251.69621      0.0124         1.7413513     -12058.403     -8337.1527      28.867318      31.18206       57.36705     
      3200   256.67511      0.0128         1.8114834     -11690.384     -8067.3913      28.867318      31.18206       57.389716    
      3300   258.49068      0.0132         1.8166827     -12085.546     -9288.0106      28.867318      31.18206       57.412382    
      3400   254.67028      0.0136         1.8437874     -12331.519     -8916.8134      28.867318      31.18206       57.435047    
      3500   255.29822      0.014          1.8373781     -12115.595     -8494.1642      28.867318      31.18206       57.457713    
      3600   249.26489      0.0144         1.8568146     -12454.221     -9037.6079      28.867318      31.18206       57.480379    
      3700   250.05196      0.0148         1.960969      -12879.752     -9454.484       28.867318      31.18206       57.503045    
      3800   255.10534      0.0152         1.8971188     -12668.61      -9147.2163      28.867318      31.18206       57.52571     
      3900   255.34249      0.0156         1.9671322     -13234.248     -9135.4842      28.867318      31.18206       57.548376    
      4000   251.70934      0.016          2.1240427     -13653.282     -10143.248      28.867318      31.18206       57.571042    
      4100   249.36744      0.0164         2.195946      -14046.575     -9885.8037      28.867318      31.18206       57.593708    
      4200   256.48432      0.0168         2.2061021     -14142.637     -10114.526      28.867318      31.18206       57.6.0581244     -6621.4028     -5219.2118      28.867318      31.18206       57.027064    
      1700   258.15153      0.0068         1.2481286     -7892.9797     -5907.8853      28.867318      31.18206       57.049729    
      1800   254.58294      0.0072         1.2174759     -8065.5768     -6475.7806      28.867318      31.18206       57.072395    
      1900   257.00947      0.0076         1.3240122     -8836.7602     -6676.5774      28.867318      31.18206       57.095061    
      2000   260.36865      0.008          1.2729522        4700   249.35952      0.0188         2.3685043     -15516.614     -11116.915      28.867318      31.18206       57.729702    
      4800   252.80266      0.0192         2.3137334     -15412.209     -11343.406      28.867318      31.18206       57.752368    
      4900   251.53212      0.0196         2.3853739     -15755.477     -11406.522      28.867318      31.18206       57.775034    
      5000   253.82807      0.02           2.4968701     -16249.089     -11389.055      28.867318      31.18206       57.7977      
      5100   253.2053       0.0204         2.5049332     -16765.374     -11392.639      28.867318      31.18206       57.820365    
      5200   257.94347      0.0208         2.5739745     -16413.782     -11628.633      28.867318      31.18206       57.843031    
      5300   250.93749      0.0212         2.5769184     -17281.569     -12373.157      28.867318      31.18206       57.865697    
      5400   251.42379      0.0216         2.6620542     -17572.325     -11935.989      28.867318      31.18206       57.888363    
      5500   260.73569      0.022          2.7260156     -17541.828     -12560.627      28.867318      31.18206       57.911028    
      5600   252.25416      0.0224         2.8049319     -17684.34      -12466.805      28.867318      31.18206       57.933694    
      5700   251.17663      0.0228         2.7383814     -18229.783     -12831.359      28.867318      31.18206       57.95636     
      5800   251.52687      0.0232         2.7335873     -18399.142     -12563.862      28.867318      31.18206       57.979026    
      5900   252.15463      0.0236         2.7346769     -18344.936     -13287.985      28.867318      31.18206       58.001691    
      6000   250.53954      0.024          2.8174073     -18915.037     -13303.785      28.867318      31.18206       58.024357    
      6100   248.7112       0.0244         2.8214751     -18964.844     -13547.39       28.867318      31.18206       58.047023    
      6200   252.48495      0.0248         2.8224502     -18927.446     -13341.482      28.867318      31.18206       58.069689    
      6300   251.44163      0.0252         2.9038129     -19470.411     -13783.573      28.867318      31.18206       58.092354    
      6400   250.15971      0.0256         3.0364007     -20568.9       -14196.725      28.867318      31.18206       58.11502     
      6500   255.88519      0.026          2.97691       -19842.299     -13825.389      28.867318      31.18206       58.137686    
      6600   252.04799      0.0264         3.006945      -20373.134     -13798.31       28.867318      31.18206       58.160352    
      6700   253.1515       0.0268         3.1978706     -20935.742     -14888.323      28.867318      31.18206       58.183018    
      6800   251.65463      0.0272         3.1078135     -20718.915     -14117.853      28.867318      31.18206       58.205683    
      6900   253.46994      0.0276         3.0416837     -20422.928     -14854.615      28.867318      31.18206       58.228349    
      7000   253.61548      0.028          3.1412058     -21137.476     -14917.058      28.867318      31.18206       58.251015    
      7100   255.74644      0.0284         3.1920074     -20599.292     -14568.687      28.867318      31.18206       58.273681    
      7200   253.37594      0.0288         3.1361295     -21395.874     -15145.075      28.867318      31.18206       58.296346    
      7300   251.27182      0.0292         3.2388539     -21318.02      -15140.328      28.867318      31.18206       58.319015043     -15516.614     -11116.915      28.867318      31.18206       57.729702    
      4800   252.80266      0.0192         2.3137334     -15412.209     -11343.406      28.867318      31.18206       57.752368    
      4900   251.53212      0.0196         2.3853739     -15755.477     -11406.522      28.867318      31.18206       57.775034    
      5000   253.82807      0.02           2.4968701     -16249.089     -11389.055      28.867318      31.18206       57.7977      
      5100   253.2053       0.0204         2.5049332        7800   255.91383      0.0312         3.446262      -23138.633     -15897.217      28.867318      31.18206       58.432341    
      7900   246.38083      0.0316         3.4654806     -23465.013     -16117.336      28.867318      31.18206       58.455007    
      8000   251.77381      0.032          3.414675      -23141.704     -15945.639      28.867318      31.18206       58.477672    
      8100   253.95608      0.0324         3.479092      -23364.019     -16945.37       28.867318      31.18206       58.500338    
      8200   248.95664      0.0328         3.4265842     -23906.478     -17274.248      28.867318      31.18206       58.523004    
      8300   252.54869      0.0332         3.4978885     -23694.028     -16464.143      28.867318      31.18206       58.54567     
      8400   251.62131      0.0336         3.5208168     -23783.968     -16580.084      28.867318      31.18206       58.568336    
      8500   251.80628      0.034          3.495284      -23544.51      -16351.198      28.867318      31.18206       58.591001    
      8600   250.75129      0.0344         3.550229      -24071.472     -17104.536      28.867318      31.18206       58.613667    
      8700   251.60831      0.0348         3.6234888     -25295.146     -17636.395      28.867318      31.18206       58.636333    
      8800   259.11753      0.0352         3.6718106     -25010.243     -17445.634      28.867318      31.18206       58.658999    
      8900   254.79055      0.0356         3.6394225     -25293.54      -17303.756      28.867318      31.18206       58.681664    
      9000   250.74365      0.036          3.8083509     -25519.658     -18061.023      28.867318      31.18206       58.70433     
      9100   248.11752      0.0364         3.7389982     -25956.747     -17785.575      28.867318      31.18206       58.726996    
      9200   254.76908      0.0368         3.7645138     -26047.932     -17696.039      28.867318      31.18206       58.749662    
      9300   249.3354       0.0372         3.789861      -26275.867     -18390.307      28.867318      31.18206       58.772327    
      9400   253.3843       0.0376         3.7973254     -26398.218     -18554.569      28.867318      31.18206       58.794993    
      9500   250.44976      0.038          3.8493845     -26091.904     -18312.872      28.867318      31.18206       58.817659    
      9600   258.40465      0.0384         3.8316654     -26580.34      -18267.234      28.867318      31.18206       58.840325    
      9700   251.79528      0.0388         3.9122064     -26777.751     -19086.017      28.867318      31.18206       58.86299     
      9800   248.45414      0.0392         3.9101773     -26991.731     -18907.034      28.867318      31.18206       58.885656    
      9900   257.97201      0.0396         3.9767407     -27087.952     -18693.091      28.867318      31.18206       58.908322    
     10000   254.19359      0.04           3.9632388     -28211.005     -19347.078      28.867318      31.18206       58.930988    
     10100   253.01857      0.0404         3.9840634     -28495.796     -19502.144      28.867318      31.18206       58.953653    
     10200   248.00558      0.0408         3.9313454     -28436.706     -19893.157      28.867318      31.18206       58.976319    
     10300   255.38412      0.0412         3.9059481     -28410.033     -20175.754      28.867318      31.18206       58.998985    
     10400   251.58694      0.0416         3.9027338     -29113.269     -20912.372      28.867318      31.18206       59.021651        -23138.633     -15897.217      28.867318      31.18206       58.432341    
      7900   246.38083      0.0316         3.4654806     -23465.013     -16117.336      28.867318      31.18206       58.455007    
      8000   251.77381      0.032          3.414675      -23141.704     -15945.639      28.867318      31.18206       58.477672    
      8100   253.95608      0.0324         3.479092      -23364.019     -16945.37       28.867318      31.18206       58.500338    
      8200   248.95664      0.0328         3.4265842       10900   249.79853      0.0436         3.8472764     -29276.184     -21343.596      28.867318      31.18206       59.13498     
     11000   255.91656      0.044          3.9572892     -29766.387     -21531.952      28.867318      31.18206       59.157645    
     11100   250.05613      0.0444         4.0438567     -30788.022     -22083.07       28.867318      31.18206       59.180311    
     11200   256.44248      0.0448         4.0623439     -30896.036     -22110.76       28.867318      31.18206       59.202977    
     11300   255.16824      0.0452         4.0708503     -31393.043     -22635.987      28.867318      31.18206       59.225643    
     11400   249.25636      0.0456         4.1426411     -31437.707     -22959.716      28.867318      31.18206       59.248308    
     11500   250.01164      0.046          4.1453404     -31432.673     -22328.459      28.867318      31.18206       59.270974    
     11600   252.33531      0.0464         4.1682406     -31492.742     -22409.299      28.867318      31.18206       59.29364     
     11700   249.4431       0.0468         4.2297993     -31886.702     -23517.656      28.867318      31.18206       59.316306    
     11800   247.01696      0.0472         4.1026009     -30739.045     -22463.236      28.867318      31.18206       59.338971    
     11900   248.75892      0.0476         4.0226153     -31095.305     -22590.601      28.867318      31.18206       59.361637    
     12000   252.00565      0.048          4.1450185     -31628.915     -22253.829      28.867318      31.18206       59.384303    
     12100   252.58854      0.0484         4.1900219     -31937.32      -23492.367      28.867318      31.18206       59.406969    
     12200   255.08551      0.0488         4.1690307     -32231.584     -23179.623      28.867318      31.18206       59.429635    
     12300   257.2339       0.0492         4.3072894     -32755.585     -23498.859      28.867318      31.18206       59.4523      
     12400   248.16267      0.0496         4.3897516     -33308.802     -24266.327      28.867318      31.18206       59.474966    
     12500   253.22598      0.05           4.4543083     -33639.465     -23836.756      28.867318      31.18206       59.497632    
     12600   254.96252      0.0504         4.4998957     -33336.531     -24040.51       28.867318      31.18206       59.520298    
     12700   252.89361      0.0508         4.4500449     -33841.125     -24316.778      28.867318      31.18206       59.542963    
     12800   250.65354      0.0512         4.4984118     -33459.126     -24716.713      28.867318      31.18206       59.565629    
     12900   257.10226      0.0516         4.4888548     -33322.447     -24430.542      28.867318      31.18206       59.588295    
     13000   251.26668      0.052          4.5059103     -33484.043     -24466.406      28.867318      31.18206       59.610961    
     13100   256.11185      0.0524         4.4915017     -33947.243     -24315.399      28.867318      31.18206       59.633626    
     13200   255.06168      0.0528         4.445935      -33877.696     -24391.45       28.867318      31.18206       59.656292    
     13300   255.0183       0.0532         4.4338792     -33966.171     -24766.335      28.867318      31.18206       59.678958    
     13400   248.80854      0.0536         4.5945254     -34211.419     -25018.618      28.867318      31.18206       59.701624    
     13500   258.47298      0.054          4.499514      -34276.016     -24615.675      28.867318      31.18206       59.724289    
   -29276.184     -21343.596      28.867318      31.18206       59.13498     
     11000   255.91656      0.044          3.9572892     -29766.387     -21531.952      28.867318      31.18206       59.157645    
     11100   250.05613      0.0444         4.0438567     -30788.022     -22083.07       28.867318      31.18206       59.180311    
     11200   256.44248      0.0448         4.0623439     -30896.036     -22110.76       28.867318      31.18206       59.202977    
     11300   255.16824      0.0452         4.0708503       14000   256.56289      0.056          4.7609912     -36147.613     -25957.432      28.867318      31.18206       59.837618    
     14100   254.13624      0.0564         4.7632305     -35508.493     -25508.947      28.867318      31.18206       59.860284    
     14200   247.85398      0.0568         4.8354729     -36581.378     -26005.894      28.867318      31.18206       59.88295     
     14300   256.17144      0.0572         4.7499288     -36086.51      -26054.387      28.867318      31.18206       59.905616    
     14400   254.1907       0.0576         4.7257055     -35531.224     -25396.156      28.867318      31.18206       59.928281    
     14500   253.68582      0.058          4.6366945     -35554.515     -25552.891      28.867318      31.18206       59.950947    
     14600   255.45041      0.0584         4.5989663     -35123.628     -25237.628      28.867318      31.18206       59.973613    
     14700   252.96945      0.0588         4.6818428     -36062.128     -25419.473      28.867318      31.18206       59.996279    
     14800   249.60792      0.0592         4.7443346     -36310.106     -26192.12       28.867318      31.18206       60.018944    
     14900   252.61179      0.0596         4.7407469     -35642.354     -25456.843      28.867318      31.18206       60.04161     
     15000   252.75866      0.06           4.64028       -35214.761     -25477.519      28.867318      31.18206       60.064276    
     15100   252.48011      0.0604         4.8039811     -36153.579     -26367.385      28.867318      31.18206       60.086942    
     15200   252.51214      0.0608         4.786512      -36317.235     -26040.034      28.867318      31.18206       60.109607    
     15300   257.27963      0.0612         4.7425268     -35623.132     -26002.626      28.867318      31.18206       60.132273    
     15400   256.23803      0.0616         4.5256032     -33944.175     -24988.472      28.867318      31.18206       60.154939    
     15500   247.13738      0.062          4.4627803     -33072.557     -24710.669      28.867318      31.18206       60.177605    
     15600   252.58758      0.0624         4.3886167     -32764.711     -24571.408      28.867318      31.18206       60.200271    
     15700   256.09897      0.0628         4.1791362     -31754.777     -23264.333      28.867318      31.18206       60.222936    
     15800   253.23736      0.0632         4.0871927     -31296.571     -23266.005      28.867318      31.18206       60.245602    
     15900   247.25701      0.0636         3.9140558     -30005.517     -22041.252      28.867318      31.18206       60.268268    
     16000   260.38525      0.064          3.8574711     -29742.89      -21815.039      28.867318      31.18206       60.290934    
     16100   252.70465      0.0644         3.7622101     -28967.526     -21824.994      28.867318      31.18206       60.313599    
     16200   250.94556      0.0648         3.6699639     -28742.14      -20704.173      28.867318      31.18206       60.336265    
     16300   257.766        0.0652         3.6980025     -28214.654     -20841.165      28.867318      31.18206       60.358931    
     16400   251.32919      0.0656         3.6210679     -27987.904     -20418.297      28.867318      31.18206       60.381597    
     16500   256.6966       0.066          3.6403786     -28485.848     -21342.96       28.867318      31.18206       60.404262    
     16600   253.89687      0.0664         3.5515643     -27230.583     -19817.258      28.867318      31.18206       60.426928    
     1147.613     -25957.432      28.867318      31.18206       59.837618    
     14100   254.13624      0.0564         4.7632305     -35508.493     -25508.947      28.867318      31.18206       59.860284    
     14200   247.85398      0.0568         4.8354729     -36581.378     -26005.894      28.867318      31.18206       59.88295     
     14300   256.17144      0.0572         4.7499288     -36086.51      -26054.387      28.867318      31.18206       59.905616    
     14400   254.1907       0.0576         4.7257055       17100   255.34306      0.0684         3.0241455     -23838.378     -17748.369      28.867318      31.18206       60.540257    
     17200   253.95375      0.0688         2.8345134     -23117.452     -17890.341      28.867318      31.18206       60.562923    
     17300   252.2286       0.0692         2.7696657     -22182.686     -16962.356      28.867318      31.18206       60.585589    
     17400   249.75067      0.0696         2.6076871     -20250.439     -15936.271      28.867318      31.18206       60.608254    
     17500   255.86976      0.07           2.6028381     -20012.848     -15928.611      28.867318      31.18206       60.63092     
     17600   254.03411      0.0704         2.5163815     -17437.096     -14289.131      28.867318      31.18206       60.653586    
     17700   254.37902      0.0708         2.4656143     -18618.544     -15165.299      28.867318      31.18206       60.676252    
     17800   254.08432      0.0712         2.3690782     -17055.399     -14710.425      28.867318      31.18206       60.698917    
     17900   254.59573      0.0716         2.2384272     -16218.302     -13879.746      28.867318      31.18206       60.721583    
     18000   248.11781      0.072          2.0442548     -15456.649     -13429.827      28.867318      31.18206       60.744249    
     18100   256.13381      0.0724         1.900648      -14104.366     -12832.303      28.867318      31.18206       60.766915    
     18200   254.14058      0.0728         1.8646966     -13607.016     -12776.658      28.867318      31.18206       60.78958     
     18300   253.73123      0.0732         1.6835734     -13120.587     -11903.745      28.867318      31.18206       60.812246    
     18400   255.14411      0.0736         1.6186323     -12671.998     -10959.977      28.867318      31.18206       60.834912    
     18500   254.21922      0.074          1.6501241     -12917.844     -11788.339      28.867318      31.18206       60.857578    
     18600   253.05815      0.0744         1.6042251     -12412.399     -11543.365      28.867318      31.18206       60.880243    
     18700   256.62537      0.0748         1.6249418     -12858.088     -11260.61       28.867318      31.18206       60.902909    
     18800   247.29171      0.0752         1.6369623     -12474.908     -11273.338      28.867318      31.18206       60.925575    
     18900   249.15055      0.0756         1.6609124     -12482.969     -11507.278      28.867318      31.18206       60.948241    
     19000   255.67989      0.076          1.7969315     -13529.676     -12235.039      28.867318      31.18206       60.970907    
     19100   248.07275      0.0764         1.8484684     -13765.908     -12040.938      28.867318      31.18206       60.993572    
     19200   251.04964      0.0768         1.7853995     -13467.267     -11860.489      28.867318      31.18206       61.016238    
     19300   250.78339      0.0772         1.702134      -12487.512     -11172.933      28.867318      31.18206       61.038904    
     19400   255.29849      0.0776         1.6962988     -12427.758     -11390.134      28.867318      31.18206       61.06157     
     19500   254.64984      0.078          1.582061      -12408.778     -11439.433      28.867318      31.18206       61.084235    
     19600   255.64656      0.0784         1.4412562     -11671.951     -10965.981      28.867318      31.18206       61.106901    
     19700   244.11872      0.0788         1.3889802     -11787.382     -10265.344      28.867318      31.18206       61.129567    
     19800378     -17748.369      28.867318      31.18206       60.540257    
     17200   253.95375      0.0688         2.8345134     -23117.452     -17890.341      28.867318      31.18206       60.562923    
     17300   252.2286       0.0692         2.7696657     -22182.686     -16962.356      28.867318      31.18206       60.585589    
     17400   249.75067      0.0696         2.6076871     -20250.439     -15936.271      28.867318      31.18206       60.608254    
     17500   255.86976      0.07           2.6028381       20200   256.7475       0.0808         1.423484      -10641.16      -9711.7576      28.867318      31.18206       61.242896    
     20300   250.06473      0.0812         1.5725654     -11628.902     -10046.451      28.867318      31.18206       61.265561    
     20400   250.84681      0.0816         1.6744344     -11439.325     -10843.191      28.867318      31.18206       61.288227    
     20500   254.58178      0.082          1.566675      -11686.243     -10110.788      28.867318      31.18206       61.310893    
     20600   246.32578      0.0824         1.6199541     -11791.918     -10503.781      28.867318      31.18206       61.333559    
     20700   252.34508      0.0828         1.51064       -11180.777     -10310.028      28.867318      31.18206       61.356225    
     20800   256.75693      0.0832         1.5092061     -11261.677     -9891.7727      28.867318      31.18206       61.37889     
     20900   247.90188      0.0836         1.3634758     -10441.036     -9476.7631      28.867318      31.18206       61.401556    
     21000   256.55024      0.084          1.439271      -10971.67      -10333.784      28.867318      31.18206       61.424222    
     21100   254.68005      0.0844         1.5308012     -11214.193     -10786.526      28.867318      31.18206       61.446888    
     21200   242.39931      0.0848         1.592645      -11703.793     -10438.791      28.867318      31.18206       61.469553    
     21300   253.64083      0.0852         1.6012576     -11935.004     -10736.514      28.867318      31.18206       61.492219    
     21400   250.30416      0.0856         1.5166242     -11732.398     -10493.444      28.867318      31.18206       61.514885    
     21500   245.97395      0.086          1.6719606     -11985.18      -11068.246      28.867318      31.18206       61.537551    
     21600   247.08621      0.0864         1.7026986     -12367.773     -10664.217      28.867318      31.18206       61.560216    
     21700   249.81089      0.0868         1.6878996     -12793.518     -11227.425      28.867318      31.18206       61.582882    
     21800   255.15401      0.0872         1.6495965     -11990.565     -10931.322      28.867318      31.18206       61.605548    
     21900   251.50785      0.0876         1.6977676     -12713.139     -10981.215      28.867318      31.18206       61.628214    
     22000   255.73848      0.088          1.7033248     -12453.197     -10576.33       28.867318      31.18206       61.650879    
     22100   259.80932      0.0884         1.5854446     -12188.606     -11100.624      28.867318      31.18206       61.673545    
     22200   249.21044      0.0888         1.5562031     -11538.761     -10144.707      28.867318      31.18206       61.696211    
     22300   258.74468      0.0892         1.5418813     -11765.171     -10094.845      28.867318      31.18206       61.718877    
     22400   257.30653      0.0896         1.6621203     -12474         -10974.223      28.867318      31.18206       61.741543    
     22500   249.90472      0.09           1.6225852     -11766.68      -10535.174      28.867318      31.18206       61.764208    
     22600   252.11122      0.0904         1.6638297     -12438.701     -10759.109      28.867318      31.18206       61.786874    
     22700   252.56209      0.0908         1.642589      -12086.045     -10998.504      28.867318      31.18206       61.80954     
     22800   249.6777       0.0912         1.7517859     -12532.247     -11266.598      28.867318      31.18206       61.832206    
     22900   2    -9711.7576      28.867318      31.18206       61.242896    
     20300   250.06473      0.0812         1.5725654     -11628.902     -10046.451      28.867318      31.18206       61.265561    
     20400   250.84681      0.0816         1.6744344     -11439.325     -10843.191      28.867318      31.18206       61.288227    
     20500   254.58178      0.082          1.566675      -11686.243     -10110.788      28.867318      31.18206       61.310893    
     20600   246.32578      0.0824         1.6199541       23300   249.36013      0.0932         1.4835818     -11138.113     -10304.02       28.867318      31.18206       61.945534    
     23400   257.96048      0.0936         1.3533558     -10325.708     -9900.4535      28.867318      31.18206       61.9682      
     23500   249.62347      0.094          1.3394688     -10102.816     -9307.6723      28.867318      31.18206       61.990866    
     23600   257.93211      0.0944         1.2737023     -9657.0553     -9367.82        28.867318      31.18206       62.013532    
     23700   255.74955      0.0948         1.2573744     -9667.1469     -8420.1171      28.867318      31.18206       62.036197    
     23800   250.25454      0.0952         1.2739478     -9865.9313     -8725.7287      28.867318      31.18206       62.058863    
     23900   247.06377      0.0956         1.4098619     -10235.793     -9170.6686      28.867318      31.18206       62.081529    
     24000   252.10158      0.096          1.4273839     -10935.804     -9333.8179      28.867318      31.18206       62.104195    
     24100   259.7272       0.0964         1.4555592     -10542.166     -9398.6968      28.867318      31.18206       62.126861    
     24200   256.65665      0.0968         1.4757413     -10658.626     -9901.9582      28.867318      31.18206       62.149526    
     24300   251.26546      0.0972         1.453804      -10475.028     -9457.9635      28.867318      31.18206       62.172192    
     24400   247.72395      0.0976         1.488597      -11275.12      -9565.9519      28.867318      31.18206       62.194858    
     24500   251.53858      0.098          1.5504987     -11477.825     -10094.815      28.867318      31.18206       62.217524    
     24600   251.69168      0.0984         1.5811256     -11554.098     -9971.3698      28.867318      31.18206       62.240189    
     24700   246.31866      0.0988         1.5043367     -10740.541     -9346.2076      28.867318      31.18206       62.262855    
     24800   255.89757      0.0992         1.399525      -10760.343     -9246.187       28.867318      31.18206       62.285521    
     24900   259.25399      0.0996         1.4067233     -10498.988     -9429.3937      28.867318      31.18206       62.308187    
     25000   248.2795       0.1            1.436069      -10545.398     -10218.997      28.867318      31.18206       62.330852    
     25100   259.11847      0.1004         1.3061952     -10407.183     -8591.9618      28.867318      31.18206       62.353518    
     25200   256.89369      0.1008         1.4273115     -10145.952     -9005.8931      28.867318      31.18206       62.376184    
     25300   255.25796      0.1012         1.5689396     -11214.747     -10083.466      28.867318      31.18206       62.39885     
     25400   254.3207       0.1016         1.5129147     -10938.836     -8830.4873      28.867318      31.18206       62.421515    
     25500   253.56476      0.102          1.5904548     -11362.038     -9375.9146      28.867318      31.18206       62.444181    
     25600   249.91411      0.1024         1.4978495     -11368.975     -9456.2775      28.867318      31.18206       62.466847    
     25700   255.81346      0.1028         1.3732242     -10244.294     -8232.3761      28.867318      31.18206       62.489513    
     25800   248.6274       0.1032         1.2704037     -9668.4666     -8397.6446      28.867318      31.18206       62.512179    
     25900   256.35723      0.1036         1.2110031     -9206.2495     -7719.8945      28.867318      31.18206       62.534844    
     26000   256.1-10304.02       28.867318      31.18206       61.945534    
     23400   257.96048      0.0936         1.3533558     -10325.708     -9900.4535      28.867318      31.18206       61.9682      
     23500   249.62347      0.094          1.3394688     -10102.816     -9307.6723      28.867318      31.18206       61.990866    
     23600   257.93211      0.0944         1.2737023     -9657.0553     -9367.82        28.867318      31.18206       62.013532    
     23700   255.74955      0.0948         1.2573744       26400   252.37478      0.1056         1.2998108     -9170.4236     -8170.4588      28.867318      31.18206       62.648173    
     26500   249.46717      0.106          1.470465      -10799.59      -8313.6612      28.867318      31.18206       62.670839    
     26600   251.64364      0.1064         1.4910201     -10934.807     -8895.2373      28.867318      31.18206       62.693505    
     26700   254.85294      0.1068         1.4878741     -10423.351     -8445.4746      28.867318      31.18206       62.71617     
     26800   249.00246      0.1072         1.5524066     -11300.613     -9109.3725      28.867318      31.18206       62.738836    
     26900   251.47211      0.1076         1.5300117     -11151.375     -8557.6199      28.867318      31.18206       62.761502    
     27000   252.37243      0.108          1.3920265     -9896.0515     -8429.113       28.867318      31.18206       62.784168    
     27100   251.20126      0.1084         1.379389      -10426.995     -8380.4127      28.867318      31.18206       62.806833    
     27200   256.96653      0.1088         1.3062018     -9317.3577     -8020.9665      28.867318      31.18206       62.829499    
     27300   260.52197      0.1092         1.1284955     -8328.5655     -7395.4583      28.867318      31.18206       62.852165    
     27400   251.85651      0.1096         1.1049511     -8972.1671     -7802.1233      28.867318      31.18206       62.874831    
     27500   254.42384      0.11           1.1243166     -8467.9811     -7878.6394      28.867318      31.18206       62.897497    
     27600   242.04672      0.1104         1.2274335     -8612.6029     -7908.0214      28.867318      31.18206       62.920162    
     27700   255.17958      0.1108         1.2945581     -9570.2966     -8130.6679      28.867318      31.18206       62.942828    
     27800   253.51548      0.1112         1.2577227     -9160.8364     -8348.7112      28.867318      31.18206       62.965494    
     27900   250.47305      0.1116         1.2710698     -8904.1743     -8285.0368      28.867318      31.18206       62.98816     
     28000   253.64292      0.112          1.1903491     -8424.5688     -7465.4302      28.867318      31.18206       63.010825    
     28100   257.16601      0.1124         1.1468707     -8766.8068     -7700.464       28.867318      31.18206       63.033491    
     28200   250.70244      0.1128         1.1091795     -8327.8757     -7421.1758      28.867318      31.18206       63.056157    
     28300   252.95285      0.1132         1.0119935     -8132.7854     -7540.2181      28.867318      31.18206       63.078823    
     28400   258.17528      0.1136         0.80582711    -6333.3874     -5760.5384      28.867318      31.18206       63.101488    
     28500   251.12335      0.114          0.82515206    -6469.0829     -6522.7744      28.867318      31.18206       63.124154    
     28600   255.46892      0.1144         0.68539094    -5888.3872     -6313.3368      28.867318      31.18206       63.14682     
     28700   257.71296      0.1148         0.62774013    -4669.9204     -5948.0478      28.867318      31.18206       63.169486    
     28800   247.71066      0.1152         0.60881688    -4763.7353     -5887.0744      28.867318      31.18206       63.192151    
     28900   255.41196      0.1156         0.75834259    -5904.8448     -6217.2152      28.867318      31.18206       63.214817    
     29000   258.02214      0.116          0.6319181     -5223.8576     -6010.4295      28.867318      31.18206       63.237483    
     29100   250.824870.4588      28.867318      31.18206       62.648173    
     26500   249.46717      0.106          1.470465      -10799.59      -8313.6612      28.867318      31.18206       62.670839    
     26600   251.64364      0.1064         1.4910201     -10934.807     -8895.2373      28.867318      31.18206       62.693505    
     26700   254.85294      0.1068         1.4878741     -10423.351     -8445.4746      28.867318      31.18206       62.71617     
     26800   249.00246      0.1072         1.5524066       29500   253.71391      0.118          0.71224752    -5869.0287     -6046.0556      28.867318      31.18206       63.350812    
     29600   248.90518      0.1184         0.68643608    -5360.2313     -5877.2645      28.867318      31.18206       63.373478    
     29700   252.56168      0.1188         0.59896119    -4750.6824     -5433.4018      28.867318      31.18206       63.396143    
     29800   252.1688       0.1192         0.68317126    -5393.3885     -5241.8312      28.867318      31.18206       63.418809    
     29900   249.69171      0.1196         0.6133028     -5210.8326     -5677.2534      28.867318      31.18206       63.441475    
     30000   255.54624      0.12           0.55728547    -5619.8676     -5326.9179      28.867318      31.18206       63.464141    
     30100   249.33845      0.1204         0.9021571     -6933.3067     -6375.1697      28.867318      31.18206       63.486806    
     30200   249.57925      0.1208         0.95853712    -7255.8008     -6773.4005      28.867318      31.18206       63.509472    
     30300   257.10155      0.1212         0.9396973     -7161.3279     -6758.5958      28.867318      31.18206       63.532138    
     30400   254.43256      0.1216         0.75956819    -6042.6345     -5263.5739      28.867318      31.18206       63.554804    
     30500   248.13022      0.122          0.87682335    -6574.0908     -6221.293       28.867318      31.18206       63.577469    
     30600   254.21926      0.1224         1.0254693     -7245.2872     -7176.3248      28.867318      31.18206       63.600135    
     30700   252.53185      0.1228         0.88776881    -7078.6883     -6553.0106      28.867318      31.18206       63.622801    
     30800   261.2729       0.1232         0.84864798    -6774.8728     -6589.8011      28.867318      31.18206       63.645467    
     30900   251.81223      0.1236         0.82919386    -6392.7824     -6553.4133      28.867318      31.18206       63.668133    
     31000   251.88995      0.124          0.83555871    -6646.6465     -5893.4967      28.867318      31.18206       63.690798    
     31100   254.69482      0.1244         0.8206762     -6309.7572     -5725.8033      28.867318      31.18206       63.713464    
     31200   252.95597      0.1248         0.8388285     -7010.1242     -6402.8764      28.867318      31.18206       63.73613     
     31300   247.43624      0.1252         0.78245794    -6093.1569     -5947.9596      28.867318      31.18206       63.758796    
     31400   255.9191       0.1256         0.86961546    -6631.1748     -5956.2732      28.867318      31.18206       63.781461    
     31500   250.78314      0.126          0.82306166    -6358.5452     -6323.0181      28.867318      31.18206       63.804127    
     31600   251.67072      0.1264         0.90839116    -6595.7398     -6605.0948      28.867318      31.18206       63.826793    
     31700   257.76584      0.1268         0.83303584    -6106.4046     -5461.0296      28.867318      31.18206       63.849459    
     31800   255.76249      0.1272         0.73622477    -5400.6406     -5266.5398      28.867318      31.18206       63.872124    
     31900   250.54837      0.1276         0.64219729    -5422.5329     -5401.404       28.867318      31.18206       63.89479     
     32000   254.77265      0.128          0.59018606    -5247.7256     -5484.1516      28.867318      31.18206       63.917456    
     32100   252.4601       0.1284         0.70490146    -5670.1187     -5954.9766      28.867318      31.18206       63.940122    
     32200   249.25387    56      28.867318      31.18206       63.350812    
     29600   248.90518      0.1184         0.68643608    -5360.2313     -5877.2645      28.867318      31.18206       63.373478    
     29700   252.56168      0.1188         0.59896119    -4750.6824     -5433.4018      28.867318      31.18206       63.396143    
     29800   252.1688       0.1192         0.68317126    -5393.3885     -5241.8312      28.867318      31.18206       63.418809    
     29900   249.69171      0.1196         0.6133028       32600   253.35923      0.1304         0.97553232    -7168.7223     -6387.6393      28.867318      31.18206       64.053451    
     32700   258.25951      0.1308         0.91322998    -6813.3254     -6830.5802      28.867318      31.18206       64.076116    
     32800   250.30938      0.1312         0.9251219     -6650.6879     -6192.8702      28.867318      31.18206       64.098782    
     32900   256.34197      0.1316         0.94351436    -7167.5582     -6631.1079      28.867318      31.18206       64.121448    
     33000   252.71778      0.132          0.92389826    -7251.4072     -6600.5873      28.867318      31.18206       64.144114    
     33100   247.26341      0.1324         0.90577357    -6373.8276     -6397.2068      28.867318      31.18206       64.166779    
     33200   249.37156      0.1328         0.76451291    -5759.2737     -6064.7328      28.867318      31.18206       64.189445    
     33300   257.5008       0.1332         0.8324136     -6655.3808     -6305.4528      28.867318      31.18206       64.212111    
     33400   254.83814      0.1336         0.78617291    -6563.411      -5767.1702      28.867318      31.18206       64.234777    
     33500   251.12894      0.134          0.80710195    -6826.0708     -6181.6485      28.867318      31.18206       64.257442    
     33600   254.79424      0.1344         0.87454495    -6127.9903     -5741.6738      28.867318      31.18206       64.280108    
     33700   249.9613       0.1348         1.0872902     -7838.174      -6996.3296      28.867318      31.18206       64.302774    
     33800   248.39027      0.1352         1.1373769     -7731.7931     -6551.1721      28.867318      31.18206       64.32544     
     33900   251.85315      0.1356         1.0776695     -7378.7527     -6593.0105      28.867318      31.18206       64.348105    
     34000   252.60375      0.136          0.95989324    -6992.5283     -6053.6823      28.867318      31.18206       64.370771    
     34100   249.09582      0.1364         0.91440905    -6857.6368     -6509.2693      28.867318      31.18206       64.393437    
     34200   255.34288      0.1368         0.98895239    -7448.2163     -6951.0964      28.867318      31.18206       64.416103    
     34300   252.76279      0.1372         0.88533146    -6599.625      -6367.0565      28.867318      31.18206       64.438769    
     34400   252.50278      0.1376         0.9221865     -7175.1456     -6532.1268      28.867318      31.18206       64.461434    
     34500   254.0933       0.138          0.86500468    -5886.5601     -5955.6123      28.867318      31.18206       64.4841      
     34600   244.07335      0.1384         0.93362878    -6979.8482     -6862.209       28.867318      31.18206       64.506766    
     34700   248.44948      0.1388         1.0638865     -7897.3026     -7281.4642      28.867318      31.18206       64.529432    
     34800   250.15349      0.1392         1.1050625     -7534.0243     -7085.8306      28.867318      31.18206       64.552097    
     34900   255.09042      0.1396         1.238117      -8738.7974     -7937.3422      28.867318      31.18206       64.574763    
     35000   247.85101      0.14           1.2459798     -8540.0843     -8158.3598      28.867318      31.18206       64.597429    
     35100   254.0487       0.1404         1.1109844     -7863.8687     -7261.916       28.867318      31.18206       64.620095    
     35200   257.09583      0.1408         1.0820001     -7590.4548     -6634.3413      28.867318      31.18206       64.64276     
     35300   251.33339      0.    28.867318      31.18206       64.053451    
     32700   258.25951      0.1308         0.91322998    -6813.3254     -6830.5802      28.867318      31.18206       64.076116    
     32800   250.30938      0.1312         0.9251219     -6650.6879     -6192.8702      28.867318      31.18206       64.098782    
     32900   256.34197      0.1316         0.94351436    -7167.5582     -6631.1079      28.867318      31.18206       64.121448    
     33000   252.71778      0.132          0.92389826      35700   252.57181      0.1428         0.93266562    -6540.3309     -6597.4099      28.867318      31.18206       64.756089    
     35800   253.93242      0.1432         1.0008594     -7047.627      -6576.5072      28.867318      31.18206       64.778755    
     35900   257.37475      0.1436         1.0382581     -7341.0964     -6696.2507      28.867318      31.18206       64.801421    
     36000   249.02094      0.144          1.1081416     -7618.4053     -7456.6727      28.867318      31.18206       64.824087    
     36100   257.03815      0.1444         1.0763695     -7458.1688     -7281.3872      28.867318      31.18206       64.846752    
     36200   253.90146      0.1448         1.0383267     -7471.7695     -6743.771       28.867318      31.18206       64.869418    
     36300   247.68241      0.1452         1.1740965     -8304.7669     -7014.2905      28.867318      31.18206       64.892084    
     36400   258.85924      0.1456         1.2135485     -8446.5277     -7791.5807      28.867318      31.18206       64.91475     
     36500   253.66971      0.146          1.2557467     -8946.5698     -7899.5552      28.867318      31.18206       64.937415    
     36600   253.07368      0.1464         1.1579315     -8124.0212     -7537.6039      28.867318      31.18206       64.960081    
[...]
     48300   250.22062      0.1932         0.66099984    -5739.0809     -5469.5818      28.867318      31.18206       67.611976    
     48400   260.93257      0.1936         0.66790776    -5803.1067     -5484.738       28.867318      31.18206       67.634641    
     48500   261.42998      0.194          0.58545038    -4673.2993     -5034.4182      28.867318      31.18206       67.657307    
     48600   249.91783      0.1944         0.5507528     -4752.9767     -4506.2692      28.867318      31.18206       67.679973    
     48700   255.66357      0.1948         0.54109352    -4653.1535     -4501.3236      28.867318      31.18206       67.702639    
     48800   255.24916      0.1952         0.5321402     -4504.1473     -4700.9092      28.867318      31.18206       67.725304    
     48900   250.39902      0.1956         0.58543605    -4939.9594     -4997.9897      28.867318      31.18206       67.74797     
     49000   252.69957      0.196          0.53530222    -4337.7527     -4777.1895      28.867318      31.18206       67.770636    
     49100   256.95906      0.1964         0.59216777    -4780.0777     -4811.4614      28.867318      31.18206       67.793302    
     49200   247.14968      0.1968         0.5918427     -4684.5844     -4726.9118      28.867318      31.18206       67.815967    
     49300   255.31968      0.1972         0.52685749    -4394.5676     -5237.3028      28.867318      31.18206       67.838633    
     49400   257.15102      0.1976         0.66308502    -4425.7207     -4722.9014      28.867318      31.18206       67.861299    
     49500   250.83837      0.198          0.5702514     -4988.227      -5375.4685      28.867318      31.18206       67.883965    
     49600   248.35334      0.1984         0.61562293    -4942.1955     -5206.1011      28.867318      31.18206       67.90663     
     49700   252.4437       0.1988         0.44477073    -3562.9953     -4433.545       28.867318      31.18206       67.929296    
     49800   256.12738      0.1992         0.50872926    -4438.5491     -5359.9737      28.867318      31.18206       67.951962    
     49900   249.2884       0.1996         0.4924503     -4314.3213     -4797.9346      28.867318      31.18206       67.974628    
     50000   248.03979      0.2            0.52926415    -4175.8363     -5106.2377      28.867318      31.18206       67.997294    
     50100   253.10848      0.2004         0.48478255    -4193.6435     -4759.9885      28.867318      31.18206       68.019959    
     50200   253.35784      0.2008         0.51884387    -4128.7256     -4610.7807      28.867318      31.18206       68.042625    
     50300   242.153        0.2012         0.53910003    -4620.5485     -4924.9992      28.867318      31.18206       68.065291    
     50400   252.91566      0.2016         0.58415886    -4741.9162     -4865.0538      28.867318      31.18206       68.087957    
     50500   250.12831      0.202          0.49915116    -4120.1508     -4627.7294      28.867318      31.18206       68.110622    
     50600   249.87743      0.2024         0.61327981    -4951.7968     -4785.0568      28.867318      31.18206       68.133288    
     50700   249.53672      0.2028         0.53050384    -3560.3169     -3457.7349      28.867318      31.18206       68.155954    
     50800   250.79726      0.2032         0.425471.18206       67.566644    
     48200   260.59437      0.1928         0.70351643    -5550.9027     -5640.8093      28.867318      31.18206       67.58931     
     48300   250.22062      0.1932         0.66099984    -5739.0809     -5469.5818      28.867318      31.18206       67.611976    
     48400   260.93257      0.1936         0.66790776    -5803.1067     -5484.738       28.867318      31.18206       67.634641    
     48500   261.42998      0.194          0.58545038      51200   251.67978      0.2048         0.39665202    -3808.4659     -4242.0746      28.867318      31.18206       68.269283    
     51300   255.2449       0.2052         0.46402702    -4028.3801     -4590.0595      28.867318      31.18206       68.291948    
     51400   252.47036      0.2056         0.5634351     -4536.4715     -4870.4326      28.867318      31.18206       68.314614    
     51500   249.78456      0.206          0.54750972    -4678.2778     -5266.2896      28.867318      31.18206       68.33728     
     51600   255.90176      0.2064         0.51887556    -4794.5327     -4434.4367      28.867318      31.18206       68.359946    
     51700   253.49702      0.2068         0.52082665    -4432.35       -4267.5466      28.867318      31.18206       68.382612    
     51800   254.75955      0.2072         0.46972827    -4244.3831     -4227.5454      28.867318      31.18206       68.405277    
     51900   246.29808      0.2076         0.52915875    -4449.1178     -4344.158       28.867318      31.18206       68.427943    
     52000   251.42531      0.208          0.32403291    -3615.1366     -3961.1862      28.867318      31.18206       68.450609    
     52100   257.29194      0.2084         0.37520766    -3395.154      -4389.571       28.867318      31.18206       68.473275    
     52200   252.84544      0.2088         0.36337254    -3741.4605     -4112.3857      28.867318      31.18206       68.49594     
     52300   253.78056      0.2092         0.39366734    -3435.2381     -4342.5545      28.867318      31.18206       68.518606    
     52400   255.61105      0.2096         0.21119366    -2799.7157     -3575.4485      28.867318      31.18206       68.541272    
     52500   254.39853      0.21           0.28239595    -3185.2359     -4276.9633      28.867318      31.18206       68.563938    
     52600   250.95984      0.2104         0.28752792    -3031.5537     -4133.8159      28.867318      31.18206       68.586603    
     52700   256.7958       0.2108         0.39906139    -3916.0744     -4290.9037      28.867318      31.18206       68.609269    
     52800   249.16582      0.2112         0.42937932    -3783.3423     -4490.6547      28.867318      31.18206       68.631935    
     52900   251.2308       0.2116         0.45498015    -4079.9246     -4380.7944      28.867318      31.18206       68.654601    
     53000   256.94382      0.212          0.4097771     -3418.4678     -4158.5532      28.867318      31.18206       68.677266    
     53100   254.02558      0.2124         0.43176143    -4355.1383     -4365.6264      28.867318      31.18206       68.699932    
     53200   254.54509      0.2128         0.32742937    -3424.8764     -4340.0445      28.867318      31.18206       68.722598    
     53300   246.75285      0.2132         0.23193293    -2639.1966     -3318.5883      28.867318      31.18206       68.745264    
     53400   250.8273       0.2136         0.23179685    -3050.1161     -3420.576       28.867318      31.18206       68.76793     
     53500   247.86765      0.214          0.19114306    -2401.2326     -3551.2629      28.867318      31.18206       68.790595    
     53600   252.55736      0.2144         0.24014244    -2884.3705     -3995.2738      28.867318      31.18206       68.813261    
     53700   252.30526      0.2148         0.3096748     -3567.2454     -3625.8342      28.867318      31.18206       68.835927    
     53800   259.67327      0.2152         0.33915946    -3362.486      -3995.9082      28.867318      31.18206       68.858593    
     53900   249.7937       0.2156         0.41439055 206       68.269283    
     51300   255.2449       0.2052         0.46402702    -4028.3801     -4590.0595      28.867318      31.18206       68.291948    
     51400   252.47036      0.2056         0.5634351     -4536.4715     -4870.4326      28.867318      31.18206       68.314614    
     51500   249.78456      0.206          0.54750972    -4678.2778     -5266.2896      28.867318      31.18206       68.33728     
     51600   255.90176      0.2064         0.51887556      54300   254.80721      0.2172         0.48661641    -4119.5698     -4266.4944      28.867318      31.18206       68.971921    
     54400   254.81103      0.2176         0.45213678    -4020.7692     -4575.5496      28.867318      31.18206       68.994587    
     54500   253.88365      0.218          0.39393139    -3678.3027     -4037.8342      28.867318      31.18206       69.017253    
     54600   252.02563      0.2184         0.25768433    -2775.9048     -3960.8233      28.867318      31.18206       69.039919    
     54700   259.60837      0.2188         0.14985656    -2018.5941     -2931.8991      28.867318      31.18206       69.062584    
     54800   252.58633      0.2192         0.23443738    -2555.7647     -3265.7813      28.867318      31.18206       69.08525     
     54900   254.11138      0.2196         0.35293292    -3421.7686     -4057.5122      28.867318      31.18206       69.107916    
     55000   253.51334      0.22           0.40439216    -3572.2452     -4061.4637      28.867318      31.18206       69.130582    
     55100   257.96012      0.2204         0.38643562    -3443.7527     -3749.8867      28.867318      31.18206       69.153248    
     55200   251.96015      0.2208         0.38840446    -3964.4463     -3754.1979      28.867318      31.18206       69.175913    
     55300   256.96501      0.2212         0.37512238    -3509.1697     -3549.2033      28.867318      31.18206       69.198579    
     55400   258.6153       0.2216         0.44043271    -4308.992      -4453.8266      28.867318      31.18206       69.221245    
     55500   255.82326      0.222          0.57626785    -4705.1719     -4403.3527      28.867318      31.18206       69.243911    
     55600   251.01373      0.2224         0.57507241    -4637.7835     -4521.8704      28.867318      31.18206       69.266576    
     55700   248.61198      0.2228         0.37063717    -3293.1503     -3591.5578      28.867318      31.18206       69.289242    
     55800   258.27569      0.2232         0.32062297    -3339.0526     -3385.1329      28.867318      31.18206       69.311908    
     55900   253.00992      0.2236         0.27776214    -3418.8196     -3858.3569      28.867318      31.18206       69.334574    
     56000   253.00658      0.224          0.22054443    -2823.6859     -3545.0557      28.867318      31.18206       69.357239    
     56100   252.66493      0.2244         0.25892046    -3118.3684     -3334.4109      28.867318      31.18206       69.379905    
     56200   254.60965      0.2248         0.35655647    -3550.1322     -3947.8447      28.867318      31.18206       69.402571    
     56300   253.8198       0.2252         0.38029666    -3152.2026     -4265.3151      28.867318      31.18206       69.425237    
     56400   251.67234      0.2256         0.52113678    -4304.3778     -4492.2897      28.867318      31.18206       69.447902    
     56500   258.7152       0.226          0.5346149     -4350.3023     -4275.477       28.867318      31.18206       69.470568    
     56600   249.14637      0.2264         0.57603066    -4593.4068     -4644.1743      28.867318      31.18206       69.493234    
     56700   255.18315      0.2268         0.50565485    -3936.9166     -4453.6316      28.867318      31.18206       69.5159      
     56800   255.57339      0.2272         0.52554145    -4631.0785     -4694.4938      28.867318      31.18206       69.538566    
     56900   254.09555      0.2276         0.39583114    -2907.704      -3437.2743      28.867318      31.18206       69.561231    
     57000   252.80976      0.228          0.41612405    -      68.971921    
     54400   254.81103      0.2176         0.45213678    -4020.7692     -4575.5496      28.867318      31.18206       68.994587    
     54500   253.88365      0.218          0.39393139    -3678.3027     -4037.8342      28.867318      31.18206       69.017253    
     54600   252.02563      0.2184         0.25768433    -2775.9048     -3960.8233      28.867318      31.18206       69.039919    
     54700   259.60837      0.2188         0.14985656      57400   255.72284      0.2296         0.25722922    -2860.4418     -3603.0574      28.867318      31.18206       69.67456     
     57500   250.49067      0.23           0.44575984    -3984.1523     -3981.7092      28.867318      31.18206       69.697226    
     57600   256.72587      0.2304         0.53151092    -4271.8098     -4525.1141      28.867318      31.18206       69.719892    
     57700   257.05049      0.2308         0.47110632    -4269.101      -4438.4588      28.867318      31.18206       69.742557    
     57800   254.67354      0.2312         0.62173704    -5161.2617     -4798.4918      28.867318      31.18206       69.765223    
     57900   245.58167      0.2316         0.53872681    -4455.1511     -3937.4651      28.867318      31.18206       69.787889    
     58000   253.12816      0.232          0.42365955    -3734.6896     -4171.2341      28.867318      31.18206       69.810555    
     58100   248.41787      0.2324         0.39740311    -3553.7422     -3964.3872      28.867318      31.18206       69.83322     
     58200   257.07012      0.2328         0.34467932    -3739.2276     -4252.6878      28.867318      31.18206       69.855886    
     58300   253.2161       0.2332         0.33177899    -3593.304      -4266.8689      28.867318      31.18206       69.878552    
     58400   249.70643      0.2336         0.2854353     -3052.1588     -3892.8048      28.867318      31.18206       69.901218    
     58500   256.96353      0.234          0.14928717    -2564.1713     -2778.4453      28.867318      31.18206       69.923884    
     58600   253.20274      0.2344         0.21236448    -2640.6275     -3227.7475      28.867318      31.18206       69.946549    
     58700   249.31997      0.2348         0.35641174    -3277.2509     -4094.2337      28.867318      31.18206       69.969215    
     58800   253.46118      0.2352         0.26103138    -2539.7303     -2759.7895      28.867318      31.18206       69.991881    
     58900   253.45783      0.2356         0.26995159    -2997.4433     -3447.3924      28.867318      31.18206       70.014547    
     59000   255.55754      0.236          0.42526152    -4063.3374     -4486.8254      28.867318      31.18206       70.037212    
     59100   255.7043       0.2364         0.44061405    -3882.3794     -4466.8811      28.867318      31.18206       70.059878    
     59200   255.15255      0.2368         0.48054691    -4349.5915     -4637.0377      28.867318      31.18206       70.082544    
     59300   250.647        0.2372         0.47513809    -4230.1072     -4376.9903      28.867318      31.18206       70.10521     
     59400   251.23434      0.2376         0.30943904    -3200.7285     -3421.0529      28.867318      31.18206       70.127875    
     59500   256.70158      0.238          0.22800314    -3208.0186     -3099.2365      28.867318      31.18206       70.150541    
     59600   252.45644      0.2384         0.1240346     -2221.2966     -3026.182       28.867318      31.18206       70.173207    
Fix halt condition for fix-id halt_frac met on step 59700 with value 1
     59700   253.31494      0.2388         0.082248291   -1441.7696     -2958.2901      28.867318      31.18206       70.195873    
Loop time of 154.878 on 4 procs for 59700 steps with 3921 atoms

Performance: 66.608 ns/day, 0.360 hours/ns, 385.465 timesteps/s, 1.511 Matom-step/s
103.3% CPU use with 4 MPI tasks x 1 OpenMP threads

MPI task timing breakdown:
Section |  min time  |  avg time  |  max time  |%varavg| %total
---------------------------------------------------------------
Pair    | 91.515     | 118.15    69.67456     
     57500   250.49067      0.23           0.44575984    -3984.1523     -3981.7092      28.867318      31.18206       69.697226    
     57600   256.72587      0.2304         0.53151092    -4271.8098     -4525.1141      28.867318      31.18206       69.719892    
     57700   257.05049      0.2308         0.47110632    -4269.101 
Nlocal:         980.25 ave        1440 max         348 min
Histogram: 1 0 0 0 0 1 0 1 0 1
Nghost:           2906 ave        3645 max        2007 min
Histogram: 1 0 0 1 0 0 0 0 1 1
Neighs:        86852.5 ave      157148 max       22972 min
Histogram: 1 0 1 0 0 0 1 0 0 1

Total # of neighbors = 347410
Ave neighs/atom = 88.602397
Neighbor list builds = 885
Dangerous builds = 0
Total wall time: 0:03:15
171.2341      28.867318      31.18206       69.810555    
     58100   248.41787      0.2324         0.39740311    -3553.7422     -3964.3872      28.867318      31.18206       69.83322     
     58200   257.07012      0.2328         0.34467932    -3739.2276     -4252.6878      28.867318      31.18206       69.855886    
     58300   253.2161       0.2332         0.33177899    -3593.304      -4266.8689      28.867318      31.18206       69.878552    
     58400   249.70643      0.2336         0.2854353     -3052.1588     -3892.8048      28.867318      31.18206       69.901218    
     58500   256.96353      0.234          0.14928717    -2564.1713     -2778.4453      28.867318      31.18206       69.923884    
     58600   253.20274      0.2344         0.21236448    -2640.6275     -3227.7475      28.867318      31.18206       69.946549    
     58700   249.31997      0.2348         0.35641174    -3277.2509     -4094.2337      28.867318      31.18206       69.969215    
     58800   253.46118      0.2352         0.26103138    -2539.7303     -2759.7895      28.867318      31.18206       69.991881    
     58900   253.45783      0.2356         0.26995159    -2997.4433     -3447.3924      28.867318      31.18206       70.014547    
     59000   255.55754      0.236          0.42526152    -4063.3374     -4486.8254      28.867318      31.18206       70.037212    
     59100   255.7043       0.2364         0.44061405    -3882.3794     -4466.8811      28.867318      31.18206       70.059878    
     59200   255.15255      0.2368         0.48054691    -4349.5915     -4637.0377      28.867318      31.18206       70.082544    
     59300   250.647        0.2372         0.47513809    -4230.1072     -4376.9903      28.867318      31.18206       70.10521     
     59400   251.23434      0.2376         0.30943904    -3200.7285     -3421.0529      28.867318      31.18206       70.127875    
     59500   256.70158      0.238          0.22800314    -3208.0186     -3099.2365      28.867318      31.18206       70.150541    
     59600   252.45644      0.2384         0.1240346     -2221.2966     -3026.182       28.867318      31.18206       70.173207    
Fix halt condition for fix-id halt_frac met on step 59700 with value 1
     59700   253.31494      0.2388         0.082248291   -1441.7696     -2958.2901      28.867318      31.18206       70.195873    
Loop time of 154.878 on 4 procs for 59700 steps with 3921 atoms

Performance: 66.608 ns/day, 0.360 hours/ns, 385.465 timesteps/s, 1.511 Matom-step/s
103.3% CPU use with 4 MPI tasks x 1 OpenMP threads

MPI task timing breakdown:
Section |  min time  |  avg time  |  max time  |%varavg| %total
---------------------------------------------------------------
Pair    | 91.515     | 118.15     | 143.19     | 203.3 | 76.29
Neigh   | 0.72282    | 1.3777     | 2.1825     |  51.4 |  0.89
Comm    | 4.9276     | 28.332     | 58.077     | 396.8 | 18.29
Output  | 1.7824     | 2.2129     | 2.6324     |  20.8 |  1.43
Modify  | 1.4578     | 4.0422     | 11.606     | 217.2 |  2.61
Other   |            | 0.76       |            |       |  0.49

Nlocal:         980.25 ave        1440 max         348 min
Histogram: 1 0 0 0 0 1 0 1 0 1
Nghost:           2906 ave        3645 max        2007 min
Histogram: 1 0 0 1 0 0 0 0 1 1
Neighs:        86852.5 ave      157148 max       22972 min
Histogram: 1 0 1 0 0 0 1 0 0 1

Total # of neighbors = 347410
Ave neighs/atom = 88.602397
Neighbor list builds = 885
Dangerous builds = 0
Total wall time: 0:03:15
