LAMMPS (11 Feb 2026 - Development - b75dfcc)
OMP_NUM_THREADS environment is not set. Defaulting to 1 thread.
  using 1 OpenMP thread(s) per MPI task
package gpu 1
units metal
boundary p p p
atom_style atomic
timestep 0.002
read_data data.crystal
Reading data file ...
  orthogonal box = (0 0 0) to (101.22 101.22 101.22)
  1 by 1 by 1 MPI processor grid
  reading atoms ...
  87808 atoms
  read_data CPU = 0.180 seconds
change_box all triclinic
Changing box ...
  triclinic box = (0 0 0) to (101.22 101.22 101.22) with tilt (0 0 0)

pair_style eam/alloy
pair_coeff * * Cu_zhou.eam.alloy Cu
Reading eam/alloy potential file Cu_zhou.eam.alloy with DATE: 2007-10-12

neighbor 2.0 bin
neigh_modify delay 10 check yes

thermo 100
thermo_style custom step temp pe press pxx pyy pzz lx ly lz

print '=== Phase 1: 0K Relaxation ==='
=== Phase 1: 0K Relaxation ===
fix relax all box/relax aniso 0.0 vmax 0.001
minimize 1.0e-8 1.0e-10 10000 100000

CITE-CITE-CITE-CITE-CITE-CITE-CITE-CITE-CITE-CITE-CITE-CITE-CITE

Your simulation uses code contributions which should be cited:

- GPU package (short-range, long-range and three-body potentials): https://doi.org/10.1016/j.cpc.2010.12.021, https://doi.org/10.1016/j.cpc.2011.10.012, https://doi.org/10.1016/j.cpc.2013.08.002, https://doi.org/10.1016/j.commatsci.2014.10.068, https://doi.org/10.1016/j.cpc.2016.10.020, https://doi.org/10.3233/APC200086

@Article{Brown11,
 author = {W. M. Brown and P. Wang and S. J. Plimpton and A. N. Tharrington},
 title = {Implementing Molecular Dynamics on Hybrid High Performance Computers---Short Range Forces},
 journal = {Comput.\ Phys.\ Commun.},
 year =    2011,
 volume =  182,
 pages =   {898--911},
 doi =     {10.1016/j.cpc.2010.12.021Done.

Setting up cg style minimization ...
  Unit style    : metal
  Current step  : 0
WARNING: Energy due to 3 extra global DOFs will be included in minimizer energies
 (src/min.cpp:222)
Per MPI rank memory allocation (min/avg/max) = 43.28 | 43.28 | 43.28 Mbytes
   Step          Temp          PotEng         Press           Pxx            Pyy            Pzz             Lx             Ly             Lz      
         0   0             -310823.06     -213.98279     -213.9826      -213.98257     -213.9832       101.22         101.22         101.22       
         5   0             -310823.09      10.270068      10.270439      10.270713      10.269051      101.21452      101.21452      101.21452    
Loop time of 0.701784 on 1 procs for 5 steps with 87808 atoms

99.9% CPU use with 1 MPI tasks x 1 OpenMP threads

Minimization stats:
  Stopping criterion = linesearch alpha is zero
  Energy initial, next-to-last, final = 
     -310823.062639373  -310823.087938671  -310823.087938671
  Force two-norm initial, final = 239.89882 11.512658
  Force max component initial, final = 138.50592 6.6472528
  Final line search alpha, max atom move = 7.173447e-11 4.7683716e-10
  Iterations, force evaluations = 5 55

MPI task timing breakdown:
Section |  min time  |  avg time  |  max time  |%varavg| %total
---------------------------------------------------------------
Pair    | 0.52368    | 0.52368    | 0.52368    |   0.0 | 74.62
Neigh   | 0          | 0          | 0          |   0.0 |  0.00
Comm    | 0.01864    | 0.01864    | 0.01864    |   0.0 |  2.66
Output  | 0          | 0          | 0          |   0.0 |  0.00
Modify  | 2.7201e-05 | 2.7201e-05 | 2.7201e-05 |   0.0 |  0.00
Other   |            | 0.1594     |            |       | 22.72

Nlocal:          87808 ave       87808 max       87808 min
Histogram: 1 0 0 0 0 0 0 0 0 0
Nghost:          76447 ave       76447 max       76447 min
Histogram: 1 0 0 0 0 0 0 0 0 0
Neighs:              0 ave           0 max           0 min
Histogram: 1 0 0 0 0 0 0 0 0 0

Total # of neighbors = 0
Ave neighs/atom = 0
Neighbor list builds = 0
Dangerous builds = 0
=== Phase 2: Equilibration at 300.0K ===


---------------------------------------------------------------------
      Device Time Info (average): 
---------------------------------------------------------------------
Data Transfer:   0.1452 s.
Neighbor copy:   0.0002 s.
Neighbor build:  0.0036 s.
Force calc:      0.3363 s.
Device Overhead: 0.0014 s.
CPU Neighbor:    0.0019 s.
CPU Cast/Pack:   0.0529 s.
CPU Driver_Time: 0.0011 s.
CPU Idle_Time:   0.4118 s.
Average split:   1.0000.
Max Mem / Proc:  336.67 MB.
Prefetch mode:   None.
Vector width:    32.
Lanes / atom:    4.
Pair block:      256.
Neigh block:     128.
Neigh mode:      Hybrid (binning on host) with subgroup support.
Neigh sorting:   Unavailable or disabled.
---------------------------------------------------------------------


--------------------------------------------------------------------------
- Using acceleration for eam/alloy:
-  with 1 proc(s) per device.
-  with 1 thread(s) per proc.
-  Horizontal vector operations: ENABLED
-  Shared memory system: No
--------------------------------------------------------------------------
Device 0: NVIDIA RTX A4000, 48 CUs, 16/16 GB, 1.6 GHZ (Mixed Precision)
--------------------------------------------------------------------------

Initializing Device and compiling on process 0...Done.
Initializing Device 0 on core 0...Done.

Setting up Verlet run ...
  Unit style    : metal
  Current step  : 0
  Time step     : 0.002
Per MPI rank memory allocation (min/avg/max) = 33.36 | 33.36 | 33.36 Mbytes
   Step          Temp          PotEng         Press           Pxx            Pyy            Pzz             Lx             Ly             Lz      
         0   300           -310823.08      3517.9265      3498.1606      3544.5318      3511.0872      101.21452      101.21452      101.21452    
       100   140.25295     -308680.99      2109.5999      2084.7777      2114.0977      2129.9243      101.31088      101.31186      101.31642    
       200   179.50503     -308576.79      453.43136      444.30262      471.22669      444.76476      101.3697       101.36407      101.37216    
       300   215.55857     -308348.21     -60.054115     -93.091819     -20.010234     -67.060292      101.41027      101.39819      101.4068     
       400   244.12324     -307987.42     -153.51293     -156.25983     -120.98744     -183.29152      101.44405      101.43458      101.43698    
       500   272.33428     -307643.12     -222.87044     -282.10306     -201.00588     -185.50238      101.4716       101.46435      101.47578    
       600   298.12164     -307392.59     -309.67008     -317.88649     -342.83413     -268.28963      101.49598      101.49771      101.49756    
       700   306.95        -307246.98     -194.51466     -195.84734     -175.71457     -211.98207      101.50483      101.50206      101.51772    
       800   299.41289     -307342.71     -104.84763     -49.646717     -121.99646     -142.89971      101.49014      101.4897       101.51028    
       900   295.27013     -307358.17      14.194643     -141.45897      20.859033      163.18387      101.50471      101.49295      101.47521    
      1000   303.87841     -307286.36      25.061832      129.61851      39.086255     -93.51927       101.48071      101.49209      101.52184    
      1100   300.1694      -307303.73      263.95793      264.53364      171.50356      355.83658      101.49506      101.50019      101.4735     
      1200   295.73635     -307356.83      476.02006      368.41555      607.99969      451.64495      101.48936      101.45781      101.48922    
      1300   301.05761     -307292.73      637.02446      829.1913       549.21828      532.66381      101.4405       101.50091      101.50333    
      1400   303.14499     -307314.96      616.66464      345.95012      673.38138      830.66241      101.52905      101.47936      101.43631    
      1500   296.31508     -307340.03      490.36107      718.30118      530.77835      222.00368      101.44172      101.47231      101.52737    
      1600   298.95116     -307304.86      105.27226      63.917119     -9.9174082      261.81707      101.49726      101.51715      101.46475    
      1700   302.46662     -307294.38     -110.01315     -139.25518     -36.599251     -154.18502      101.51142      101.48577      101.50729    
      1800   297.97101     -307340.29     -272.67238     -211.43405     -316.68029     -289.90278      101.47144      101.51594      101.51338    
      1900   297.39374     -307314.02     -276.03851     -348.40923     -277.20214     -202.50417      101.51949      101.50785      101.48076    
      2000   302.47868     -307293.65     -421.35052     -396.38716     -253.31755     -614.34685      101.49536      101.50021      101.53015    
      2100   297.94633     -307312.35     -326.06706     -243.2339      -486.76868     -248.1986       101.49953      101.53198      101.48144    
      2200   299.04714     -307362.78     -331.00439     -462.94034     -110.49197     -419.58086      101.52385      101.47537      101.50543    
      2300   301.53868     -307292.81     -158.38382      85.169967     -331.6385      -228.68293      101.46532      101.52547      101.51548    
      2400   301.01063     -307304.31      33.686725     -158.55665      16.083789      243.53304      101.52838      101.49794      101.46318    
      2500   298.48518     -307360.97      231.09661      387.34755      293.87611      12.066181      101.46201      101.4762       101.52211    
Loop time of 29.5221 on 1 procs for 2500 steps with 87808 atoms

Performance: 14.633 ns/day, 1.640 hours/ns, 84.682 timesteps/s, 7.436 Matom-step/s
99.9% CPU use with 1 MPI tasks x 1 OpenMP threads

MPI task timing breakdown:
Section |  min time  |  avg time  |  max time  |%varavg| %total
---------------------------------------------------------------
Pair    | 22.257     | 22.257     | 22.257     |   0.0 | 75.39
Neigh   | 0          | 0          | 0          |   0.0 |  0.00
Comm    | 0.82651    | 0.82651    | 0.82651    |   0.0 |  2.80
Output  | 0.016369   | 0.016369   | 0.016369   |   0.0 |  0.06
Modify  | 5.752      | 5.752      | 5.752      |   0.0 | 19.48
Other   |            | 0.6699     |            |       |  2.27

Nlocal:          87808 ave       87808 max       87808 min
Histogram: 1 0 0 0 0 0 0 0 0 0
Nghost:          76447 ave       76447 max       76447 min
Histogram: 1 0 0 0 0 0 0 0 0 0
Neighs:              0 ave           0 max           0 min
Histogram: 1 0 0 0 0 0 0 0 0 0

Total # of neighbors = 0
Ave neighs/atom = 0
Neighbor list builds = 0
Dangerous builds = 0
=== Phase 3: Tension ===


---------------------------------------------------------------------
      Device Time Info (average): 
---------------------------------------------------------------------
Data Transfer:   5.6517 s.
Neighbor copy:   0.0002 s.
Neighbor build:  0.0034 s.
Force calc:      14.6712 s.
Device Overhead: 0.0504 s.
CPU Neighbor:    0.0015 s.
CPU Cast/Pack:   2.0829unfix eq

print '=== Phase 3: Tension ==='
=== Phase 3: Tension ===
reset_timestep 0

# 初期z寸法の記録
variable tmp equal lz
variable lz0 equal ${tmp}
variable lz0 equal 101.522105539373
variable tmp delete

# z軸変形 + x,yゼロ圧力（Poisson収縮を許容）
fix deform_fix all deform 1 z erate 0.0005 remap x
fix npt_fix all npt temp 300.0 300.0 0.1 x 0.0 0.0 1.0 y 0.0 0.0 1.0 xy 0.0 0.0 1.0 xz 0.0 0.0 1.0 yz 0.0 0.0 1.0

# ひずみ・応力（sigma = -P [GPa]）
variable strain equal (lz-v_lz0)/v_lz0
variable stress equal -pzz/10000

# 欠陥解析用compute
# stress/atom: 単位は bar*Å³（実応力はボロノイ体積で割る必要あり）
compute peratom all stress/atom NULL
compute cna all cna/atom 3.087
compute csym all centro/atom fcc

thermo 100
thermo_style custom step temp v_strain v_stress pxx pyy pzz lx ly lz

fix out1 all print 100 "${strain} ${stress}" file stress_strain.txt screen no
dump 1 all customDone.

Neighbor list info ...
  update: every = 1 steps, delay = 10 steps, check = yes
  max neighbors/atom: 2000, page size: 100000
  master list distance cutoff = 11.0375
  ghost atom cutoff = 11.0375
  binsize = 5.51875, bins = 19 19 19
  2 neighbor lists, perpetual/occasional/extra = 0 2 0
  (1) compute cna/atom, occasional
      attributes: full, newton on
      pair build: full/bin/atomonly
      stencil: full/bin/3d
      bin: standard
  (2) compute centro/atom, occasional
      attributes: full, newton on
      pair build: full/bin/atomonly
      stencil: full/bin/3d
      bin: standard
Setting up Verlet run ...
  Unit style    : metal
  Current step  : 0
  Time step     : 0.002
Per MPI rank memory allocation (min/avg/max) = 49.17 | 49.17 | 49.17 Mbytes
   Step          Temp         v_strain       v_stress    v_stress_drop  v_drop_from_peak      Pxx            Pyy            Pzz             Lx             Ly             Lz      
         0   298.48518     -4.7592498e-15 -0.0012066648   2.6020852e-18  0.0012066648   387.34799      293.87663      12.066648      101.46201      101.4762       101.52211    
       100   299.96306      0.0001         0.0099145704  -0.0055606176   0              176.2699       227.45748     -99.145704      101.47558      101.46886      101.53226    
       200   300.9338       0.0002         0.022146319   -0.011861578    0              78.733137      10.040177     -221.46319      101.47135      101.47744      101.54241    
       300   299.29764      0.0003         0.052910449   -0.031969281    0             -101.17107     -85.981576     -529.10449      101.47773      101.47516      101.55256    
       400   298.93321      0.0004         0.073819535   -0.042302693    0             -337.02745     -292.53172     -738.19535      101.49171      101.46732      101.56271    
       500   299.29814      0.0005         0.086420719   -0.045753231    0             -351.65059     -470.04068     -864.20719      101.47696      101.48296      101.57287    
       600   299.65329      0.0006         0.1023205     -0.052845442    0             -386.07789     -462.37393     -1023.205       101.47508      101.47602      101.58302    
       700   299.64963      0.0007         0.083250321   -0.029553352    0.019070182   -234.8672      -206.86737     -832.50321      101.4666       101.46339      101.59317    
       800   299.34399      0.0008         0.07711467    -0.020815734    0.025205834    159.44831      17.523349     -771.1467       101.43457      101.46477      101.60332    
       900   299.27561      0.0009         0.06679288    -0.0094445492   0.035527624    240.91196      433.4279      -667.9288       101.44977      101.42214      101.61348    
      1000   301.01601      0.001          0.058670593    0.0046654635   0.043649911    455.27976      381.29576     -586.70593      101.41693      101.44504      101.62363    
      1100   300.93356      0.0011         0.075635915   -0.0057277248   0.026684589    332.7174       343.62027     -756.35915      101.43171      101.42226      101.63378    
      1200   298.29269      0.0012         0.097883458   -0.020401554  0.0005         0.086420719   -0.045753231    0             -351.65059     -470.04068     -864.20719      101.47696      101.48296      101.57287    
       600   299.65329      0.0006         0.1023205     -0.052845442    0             -386.07789     -462.37393     -1023.205       101.47508      101.47602      101.58302    
       700   299.64963      0.0007         0.083250321   -0.029553352    0.019070182   -234.8672      -206.86737     -832.50321      101.4666       101.46339      101.59317    
       800   299.34399      0.0008         0.07711467    -0.020815734    0.025205834    159.44831      17.523349     -771.1467       101.43457      101.46477      101.60332    
       900   299.27561      0.0009         0.06679288    -0.0094445492   0.035527624    240.91196      433.4279      -667.9288       101.44977      101.42214      101.61348    
      1000   301.01601      0.001          0.058670593    0.0046654635   0.043649911    455.2.43442      101.41943      101.69469    
      1800   300.00759      0.0018         0.15007059    -0.023908376    0.031166778    188.6787       66.179151     -1500.7059      101.39654      101.41865      101.70485    
      1900   299.93736      0.0019         0.13097864     0.0016021521   0.05025873     392.02669      400.95857     -1309.7864      101.40497      101.38432      101.715      
      2000   302.88277      0.002          0.14529727    -0.0040538131   0.035940097    484.3362       385.58886     -1452.9727      101.38516      101.39524      101.72515    
      2100   298.96051      0.0021         0.14719722     0.0012023624   0.034040142    390.0481       479.72073     -1471.9722      101.38757      101.38208      101.7353     
      2200   300.39423      0.0022         0.17244526    -0.016589489    0.0087921101   171.00645      172.30315     -1724.4526      101.39145      101.38758      101.74545    
      2300   301.24678      0.0023         0.20482746    -0.042056129    0             -61.567047     -196.70457     -2048.2746      101.39063      101.40186      101.75561    
      2400   299.02996      0.0024         0.2244209     -0.054755665    0             -312.94039     -200.59264     -2244.209       101.40133      101.39269      101.76576    
      2500   299.76231      0.0025         0.23614478    -0.060988801    0             -235.21154     -332.72961     -2361.4478      101.38991      101.3995       101.77591    
      2600   299.81625      0.0026         0.24233709    -0.060265526    0             -363.07649     -322.85154     -2423.3709      101.39223      101.39034      101.78606    
      2700   299.8762       0.0027         0.24577047    -0.0558215      0             -235.35418     -218.064       -2457.7047      101.38992      101.37726      101.79622    
      2800   300.43131      0.0028         0.23816123    -0.039403201    0.0076092353   30.402184     -70.856794     -2381.6123      101.36455      101.38123      101.80637    
      2900   301.4168       0.0029         0.22568321    -0.017454725    0.020087253    118.31084      156.60821     -2256.8321      101.37324      101.35346      101.81652    
      3000   299.05723      0.003          0.21688136    -0.0014944576   0.028889112    464.25951      448.34113     -2168.8136      101.34554      101.34902      101.82667    
      3100   300.9613       0.0031         0.2127807      0.0091645474   0.03298977     616.223        494.71517     -2127.807       101.32875      101.34989      101.83682    
      3200   302.22737      0.0032         0.2340692     -0.005961563    0.011701264    262.72415      555.429       -2340.692       101.36817      101.31687      101.84698    
      3300   298.60385      0.0033         0.26597986    -0.03175698     0              231.7234       75.704832     -2659.7986      101.33198      101.36525      101.85713    
      3400   299.90029      0.0034         0.30326861    -0.06116096     0             -331.44007     -234.28451     -3032.6861      101.36992      101.3449       101.86728    
      3500   299.02193      0.0035         0.31751322    -0.067268728    0             -431.8633    -0.039403201    0.0076092353   30.402184     -70.856794     -2381.6123      101.36455      101.38123      101.80637    
      2900   301.4168       0.0029         0.22568321    -0.017454725    0.020087253    118.31084      156.60821     -2256.8321      101.37324      101.35346      101.81652    
      3000   299.05723      0.003          0.21688136    -0.0014944576   0.028889112    464.25951      448.34113     -2168.8136      101.34554      101.34902      101.82667    
      3100   300.9613       0.0031         0.2127807      0.0091645474   0.03298977     616.223        494.71517     -2127.807       101.32875      101.34989      101.83682    
      3200   302.22737      0.0032         0.2340692     -0.005961563    0.011701264    262.72415      555.429       -2340.692       101.36817      101.31687      101.84698    
      3300   298.60385      0.0033         0.26597986    -0.03175698     0              231.7234       75.704832     -  101.92819    
      4100   299.17253      0.0041         0.31291238    -0.0089998195   0.013076574    361.01214      274.95853     -3129.1238      101.30687      101.31062      101.93835    
      4200   300.99146      0.0042         0.31826404    -0.0059319952   0.0077249142   281.45002      281.02878     -3182.6404      101.31824      101.29205      101.9485     
      4300   299.88534      0.0043         0.33444306    -0.015264698    0              290.38701      234.12148     -3344.4306      101.30469      101.29964      101.95865    
      4400   299.65592      0.0044         0.36875651    -0.043029352    0              79.087873      28.659756     -3687.5651      101.3142       101.29699      101.9688     
      4500   300.58276      0.0045         0.39380675    -0.060450239    0             -207.55083     -211.98614     -3938.0675      101.32158      101.30236      101.97896    
      4600   299.69777      0.0046         0.41007696    -0.068311653    0             -384.27178     -342.19187     -4100.7696      101.30844      101.31823      101.98911    
      4700   300.28076      0.0047         0.41390299    -0.063231773    0             -436.06263     -300.26278     -4139.0299      101.31626      101.3016       101.99926    
      4800   299.7133       0.0048         0.40294224    -0.043804483    0.010960752   -212.92284     -185.06413     -4029.4224      101.29782      101.29933      102.00941    
      4900   300.04665      0.0049         0.40165443    -0.034521213    0.012248561    106.85756      1.8999649     -4016.5443      101.27955      101.29158      102.01956    
      5000   300.97907      0.005          0.38964015    -0.015000201    0.024262839    200.33679      253.61498     -3896.4015      101.27347      101.27982      102.02972    
      5100   301.58151      0.0051         0.39595807    -0.01301355     0.017944922    300.56091      376.50388     -3959.5807      101.26322      101.27546      102.03987    
      5200   300.56889      0.0052         0.40352613    -0.0120554      0.010376862    222.85375      321.59445     -4035.2613      101.26976      101.25743      102.05002    
      5300   298.50661      0.0053         0.42082865    -0.020719361    0              189.24741      169.24072     -4208.2865      101.2666       101.26412      102.06017    
      5400   300.10185      0.0054         0.44378589    -0.036173664    0             -87.971127     -21.552749     -4437.8589      101.26855      101.2724       102.07032    
      5500   298.20574      0.0055         0.45180187    -0.038390131    0             -185.08583     -169.45359     -4518.0187      101.26395      101.27377      102.08048    
      5600   300.43253      0.0056         0.47863117    -0.058364006    0             -359.08182     -260.87726     -4786.3117      101.26607      101.27058      102.09063    
      5700   302.1505       0.0057         0.48366403    -0.056420764    0             -205.11728     -230.42181     -4836.6403      101.25963      101.27011      102.10078    
      5800   301.44559      0.0058         0.47923841    -0.044365526    0.0044256216  -115.23905     -50.138151     -477944922    300.56091      376.50388     -3959.5807      101.26322      101.27546      102.03987    
      5200   300.56889      0.0052         0.40352613    -0.0120554      0.010376862    222.85375      321.59445     -4035.2613      101.26976      101.25743      102.05002    
      5300   298.50661      0.0053         0.42082865    -0.020719361    0              189.24741      169.24072     -4208.2865      101.2666       101.26412      102.06017    
      5400   300.10185      0.0054         0.44378589    -0.036173664    0             -87.971127     -21.552749     -4437.8589      101.26855      101.2724       102.07032    
      5500   298.20574      0.0055         0.45180187    -0.038390131    0             -185.08583     -169.45359     -4518.0187      101.26395      101.27377      102.08048    
      5600   300.43253      0.0056         0.47863117    -0.058364006    0             -359.08182     -260.87726     -4786.3117      101.26607 0   299.63169      0.0064         0.52497833    -0.045164166    0             -208.00977     -122.61174     -5249.7833      101.23855      101.22979      102.17185    
      6500   299.16039      0.0065         0.55560344    -0.065409115    0             -177.47237     -388.02899     -5556.0344      101.21952      101.24884      102.182      
      6600   299.26398      0.0066         0.55286246    -0.055245005    0.0027409797  -274.5721      -119.04876     -5528.6246      101.23847      101.21667      102.19215    
      6700   301.2793       0.0067         0.54994271    -0.045697384    0.005660733   -130.64111     -201.26089     -5499.4271      101.21274      101.22865      102.2023     
      6800   299.7426       0.0068         0.55375765    -0.042060402    0.0018457913  -47.395484     -18.007745     -5537.5765      101.20747      101.21504      102.21246    
      6900   300.52436      0.0069         0.55974818    -0.038788881    0              20.146628      134.99477     -5597.4818      101.213        101.19668      102.22261    
      7000   300.78141      0.007          0.55314161    -0.023290111    0.0066065631   248.62268      145.56182     -5531.4161      101.18736      101.21016      102.23276    
      7100   300.51864      0.0071         0.55434808    -0.014968069    0.0054001005   217.25738      231.68868     -5543.4808      101.19404      101.19052      102.24291    
      7200   301.38129      0.0072         0.57169109    -0.023135172    0              223.93581      168.9279      -5716.9109      101.19142      101.18308      102.25306    
      7300   298.07463      0.0073         0.58633914    -0.030097869    0              190.55183      101.84642     -5863.3914      101.17377      101.20003      102.26322    
      7400   301.81095      0.0074         0.60809442    -0.043541541    0             -211.16599     -142.31462     -6080.9442      101.20971      101.1777       102.27337    
      7500   299.36599      0.0075         0.63379969    -0.06142719     0             -219.65293     -349.78706     -6337.9969      101.18292      101.20493      102.28352    
      7600   299.28286      0.0076         0.64550341    -0.063866816    0             -386.51285     -417.85353     -6455.0341      101.19207      101.19373      102.29367    
      7700   299.70935      0.0077         0.64484301    -0.053716379    0.00066040703 -347.15276     -262.25121     -6448.4301      101.19486      101.1801       102.30383    
      7800   299.17093      0.0078         0.63992895    -0.040185193    0.0055744633  -30.331911     -233.95913     -6399.2895      101.15327      101.19522      102.31398    
      7900   301.14448      0.0079         0.64121811    -0.033327361    0.0042853023  -127.25634      151.43045     -6412.1811      101.19167      101.14089      102.32413    
      8000   300.58456      0.008          0.63054145    -0.014910716    0.014961963    318.50674      140.46635     -6305.4145      101.14289      101.17053      102.33428    
      8100   298.74249      0.0081         0.6308093     -0.0075324482   0.014694108    300.56342      271.02161     -6308.093       101.13873   -142.31462     -6080.9442      101.20971      101.1777       102.27337    
      7500   299.36599      0.0075         0.63379969    -0.06142719     0             -219.65293     -349.78706     -6337.9969      101.18292      101.20493      102.28352    
      7600   299.28286      0.0076         0.64550341    -0.063866816    0             -386.51285     -417.85353     -6455.0341      101.19207      101.19373      102.29367    
      7700   299.70935      0.0077         0.64484301    -0.053716379    0.00066040703 -347.15276     -262.25121     -6448.4301      101.19486      101.1801       102.30383    
      7800   299.17093      0.0078         0.63992895    -0.040185193    0.0055744633  -30.331911     -233.95913     -6399.2895      101.15327      101.19522      102.31398    
      7900   301.14448      0.0079         0.64121811    -0.033327361    0.0042853023  -127.25634      151.43045     -6412.1811      101.19167      101.14089      102.3         0.71803851    -0.054747617    0             -334.57379     -9.4041417     -7180.3851      101.16833      101.11628      102.40535    
      8800   299.26112      0.0088         0.72061791    -0.049258122    0             -47.828062     -247.3471      -7206.1791      101.11813      101.14775      102.4155     
      8900   298.4949       0.0089         0.71880965    -0.039690714    0.0018082539   17.827624     -60.445608     -7188.0965      101.12149      101.13504      102.42565    
      9000   300.65752      0.009          0.72381743    -0.035370895    0             -153.02129      152.63203     -7238.1743      101.14959      101.09761      102.4358     
      9100   299.7539       0.0091         0.71945342    -0.022142468    0.0043640149   358.36196     -34.684557     -7194.5342      101.06998      101.15484      102.44596    
      9200   298.71725      0.0092         0.72571857    -0.019478543    0              1.1547223      425.35937     -7257.1857      101.13992      101.07275      102.45611    
      9300   300.96382      0.0093         0.73236378    -0.018429715    0              146.67885      135.69244     -7323.6378      101.10305      101.10805      102.46626    
      9400   299.31935      0.0094         0.75380292    -0.031860338    0              174.98133     -61.218131     -7538.0292      101.077        101.13215      102.47641    
      9500   299.29433      0.0095         0.76851885    -0.039255447    0             -207.19758      68.935006     -7685.1885      101.14076      101.06938      102.48657    
      9600   300.25276      0.0096         0.78702314    -0.050206723    0             -131.82438     -247.97641     -7870.2314      101.08053      101.12965      102.49672    
      9700   299.52915      0.0097         0.79748454    -0.052723522    0             -159.70245     -87.246213     -7974.8454      101.10808      101.09491      102.50687    
      9800   299.80886      0.0098         0.79481291    -0.042632385    0.0026716366  -223.13736     -125.20685     -7948.1291      101.10275      101.09132      102.51702    
      9900   299.99255      0.0099         0.80351868    -0.042867254    0              163.67104     -174.22176     -8035.1868      101.0609       101.1131       102.52717    
     10000   301.18635      0.01           0.79919779    -0.031008333    0.0043208849   20.677935      111.95897     -7991.9779      101.09119      101.06895      102.53733    
     10100   300.41046      0.0101         0.80252458    -0.026028004    0.00099409737  135.44907      103.53756     -8025.2458      101.07565      101.07497      102.54748    
     10200   298.94667      0.0102         0.81604618    -0.030516838    0              161.40147      116.26824     -8160.4618      101.05839      101.0826       102.55763    
     10300   301.74886      0.0103         0.81976151    -0.025492399    0              9.1160178      153.57439     -8197.6151      101.083        101.05357      102.56778    
     10400   300.33948      0.0104         0.83519123    -0.03278329     0              63.706675     -123.24472     -8351.9123      101.05337      101.08571      102.577      101.10808      101.09491      102.50687    
      9800   299.80886      0.0098         0.79481291    -0.042632385    0.0026716366  -223.13736     -125.20685     -7948.1291      101.10275      101.09132      102.51702    
      9900   299.99255      0.0099         0.80351868    -0.042867254    0              163.67104     -174.22176     -8035.1868      101.0609       101.1131       102.52717    
     10000   301.18635      0.01           0.79919779    -0.031008333    0.0043208849   20.677935      111.95897     -7991.9779      101.09119      101.06895      102.53733    
     10100   300.41046      0.0101         0.80252458    -0.026028004    0.00099409737  135.44907      103.53756     -8025.2458      101.07565      101.07497      102.54748    
     10200   298.94667      0.0102         0.81604618    -0.030516838    0              161.40147      116.26824     -8160.4618      101.05839      101.0826       102.55763    
     10300   301.028574755    0.0032341445   156.17499      118.46991     -8787.7347      101.03378      101.04464      102.63885    
     11100   302.33274      0.0111         0.87655287    -0.018951324    0.0054547458   43.571482      188.01956     -8765.5287      101.04849      101.02519      102.649      
     11200   301.85725      0.0112         0.89594004    -0.030349106    0              179.88881     -104.70177     -8959.4004      101.00556      101.06138      102.65915    
     11300   300.18303      0.0113         0.91270737    -0.037821852    0              29.926019      94.045883     -9127.0737      101.04626      101.01337      102.66931    
     11400   300.01976      0.0114         0.91787757    -0.03472342     0              32.251268      72.812903     -9178.7757      101.01994      101.03332      102.67946    
     11500   299.86433      0.0115         0.92096635    -0.031436297    0              80.169193     -104.47085     -9209.6635      101.00997      101.0395       102.68961    
     11600   299.59809      0.0116         0.92915659    -0.033233492    0             -73.563584      133.9911      -9291.5659      101.03524      100.99941      102.69976    
     11700   300.56029      0.0117         0.93945766    -0.036060086    0              213.00817     -10.664273     -9394.5766      100.98433      101.04099      102.70991    
     11800   300.76625      0.0118         0.95094418    -0.040652946    0              33.714617      70.063219     -9509.4418      101.00507      101.01731      102.72007    
     11900   297.9012       0.0119         0.95722214    -0.039262312    0              4.705473       114.46574     -9572.2214      101.01299      100.99905      102.73022    
     12000   300.31849      0.012          0.96346112    -0.037032531    0              34.248571      17.998737     -9634.6112      100.9859       101.02231      102.74037    
     12100   300.09359      0.0121         0.97102917    -0.035152946    0              2.7861372      96.917858     -9710.2917      101.00621      100.99259      102.75052    
     12200   299.23256      0.0122         0.97953884    -0.035302741    0              53.466547      18.712681     -9795.3884      100.99088      100.99849      102.76068    
     12300   301.23378      0.0123         0.99283425    -0.040585465    0              71.296314     -18.199897     -9928.3425      100.98772      100.99577      102.77083    
     12400   300.29947      0.0124         0.99475009    -0.03481405     0             -49.790583      88.636825     -9947.5009      100.99017      100.98406      102.78098    
     12500   299.49273      0.0125         1.0045255     -0.03623353     0              95.588602      8.2278737     -10045.255      100.96801      100.99691      102.79113    
     12600   299.47133      0.0126         1.0273507     -0.049239335    0             -127.48708      20.272471     -10273.507      100.99615      100.9698       102.80128    
     12700   300.92258      0.0127         1.0364423     -0.048632466    0             -71.275271     -190.07449     -10364.423      100.96596      100.99485      102.81144    
     12800   299.502231      102.74037    
     12100   300.09359      0.0121         0.97102917    -0.035152946    0              2.7861372      96.917858     -9710.2917      101.00621      100.99259      102.75052    
     12200   299.23256      0.0122         0.97953884    -0.035302741    0              53.466547      18.712681     -9795.3884      100.99088      100.99849      102.76068    
     12300   301.23378      0.0123         0.99283425    -0.040585465    0              71.296314     -18.199897     -9928.3425      100.98772      100.99577      102.77083    
     12400   300.29947      0.0124         0.99475009    -0.03481405     0             -49.790583      88.636825     -9947.5009      100.99017      100.98406      102.78098    
     12500   299.49273      0.0125         1.0045255     -0.03623353     0              95.588602      8.2278737     -10045.255      100.96801      100.99691      102.79113    
     12600   299.47133      0.0126           98.569057     -3.2511451     -10789.005      100.94149      100.96473      102.87235    
     13400   298.90658      0.0134         1.0791381     -0.029161851    0             -24.269543      93.989112     -10791.381      100.9553       100.93578      102.8825     
     13500   300.55413      0.0135         1.0935475     -0.034669045    0             -6.0281438     -66.346494     -10935.475      100.93634      100.9563       102.89265    
     13600   300.46572      0.0136         1.1143345     -0.046757579    0             -105.4926      -124.9227      -11143.345      100.94698      100.94579      102.90281    
     13700   298.8731       0.0137         1.1284714     -0.051691645    0             -347.90154     -161.78684     -11284.714      100.9653       100.92503      102.91296    
     13800   298.79772      0.0138         1.1425246     -0.056491635    0             -60.995412     -355.11283     -11425.246      100.91123      100.97236      102.92311    
     13900   300.22357      0.0139         1.131865      -0.037775751    0.010659585   -246.08255     -62.100736     -11318.65       100.95452      100.91451      102.93326    
     14000   299.64106      0.014          1.1251421     -0.023757854    0.017382469    166.38429      117.64674     -11251.421      100.92589      100.92042      102.94342    
     14100   299.78874      0.0141         1.1229004     -0.014455814    0.019624244    271.47038      131.58922     -11229.004      100.90902      100.92055      102.95357    
     14200   299.33116      0.0142         1.1323995     -0.01747716     0.010125073    182.17114      288.86165     -11323.995      100.9201       100.89718      102.96372    
     14300   301.6208       0.0143         1.1402889     -0.019227705    0.0022356871   199.25381      225.5372      -11402.889      100.89523      100.91792      102.97387    
     14400   300.94605      0.0144         1.1572912     -0.028414695    0              107.23834      159.17293     -11572.912      100.91157      100.90241      102.98402    
     14500   299.20592      0.0145         1.1798924     -0.042381434    0             -77.801611     -51.821119     -11798.924      100.91388      100.89946      102.99418    
     14600   299.66661      0.0146         1.1928882     -0.047521824    0             -89.8683       -163.37124     -11928.882      100.8998       100.91333      103.00433    
     14700   300.88433      0.0147         1.2096122     -0.056131692    0             -286.87751     -245.072       -12096.122      100.91303      100.90281      103.01448    
     14800   300.06334      0.0148         1.2119015     -0.051483307    0             -204.69929     -124.95882     -12119.015      100.91369      100.88653      103.02463    
     14900   300.08153      0.0149         1.210692      -0.042391175    0.0012094314  -6.5765962     -100.12509     -12106.92       100.88391      100.89592      103.03478    
     15000   299.92832      0.015          1.194922      -0.019643182    0.016979437    130.4765       212.59699     -11949.22       100.88644      100.87249      103.04494    
     15100   299.45364      0.0151              14400   300.94605      0.0144         1.1572912     -0.028414695    0              107.23834      159.17293     -11572.912      100.91157      100.90241      102.98402    
     14500   299.20592      0.0145         1.1798924     -0.042381434    0             -77.801611     -51.821119     -11798.924      100.91388      100.89946      102.99418    
     14600   299.66661      0.0146         1.1928882     -0.047521824    0             -89.8683       -163.37124     -11928.882      100.8998       100.91333      103.00433    
     14700   300.88433      0.0147         1.2096122     -0.056131692    0             -286.87751     -245.072       -12096.122      100.91303      100.90281      103.01448    
     14800   300.06334      0.0148         1.2119015     -0.051483307    0             -204.69929     -124.95882     -12119.015      100.91369      100.88653      103.02463    
     14900   300.08153      0.0149         1.210692      -0.04239113      -12764.689      100.87845      100.86274      103.10585    
     15700   300.53016      0.0157         1.2852059     -0.05065245     0             -171.98296     -237.04209     -12852.059      100.86789      100.86462      103.116      
     15800   298.93389      0.0158         1.2862167     -0.044231701    0             -53.381281     -82.382298     -12862.167      100.86212      100.84987      103.12615    
     15900   300.77088      0.0159         1.2813148     -0.03226755     0.0049018747   56.477361      73.314793     -12813.148      100.85728      100.84041      103.13631    
     16000   298.96126      0.016          1.2797793     -0.022246378    0.0064373142   224.20612      113.26135     -12797.793      100.83076      100.84993      103.14646    
     16100   299.14123      0.0161         1.2963013     -0.028041811    0              178.39153      218.9975      -12963.013      100.84231      100.82853      103.15661    
     16200   300.51097      0.0162         1.3084174     -0.03077188     0              91.348998      131.66777     -13084.174      100.84135      100.82935      103.16676    
     16300   299.41794      0.0163         1.3233399     -0.036834186    0              28.374887     -111.2468      -13233.399      100.82495      100.8487       103.17692    
     16400   300.0988       0.0164         1.3439761     -0.048446881    0             -277.49339     -168.45001     -13439.761      100.84791      100.82962      103.18707    
     16500   300.92398      0.0165         1.3579115     -0.054018305    0             -249.74763     -278.55524     -13579.115      100.83562      100.84042      103.19722    
     16600   299.77056      0.0166         1.3658392     -0.053008978    0             -249.9382      -214.24851     -13658.392      100.82987      100.83234      103.20737    
     16700   300.18151      0.0167         1.362495      -0.041935843    0.0033442287  -160.56709     -5.4281258     -13624.95       100.834        100.80886      103.21752    
     16800   300.78457      0.0168         1.3450655     -0.018621543    0.02077364     203.77412      102.9841      -13450.655      100.80049      100.82397      103.22768    
     16900   301.62177      0.0169         1.3552443     -0.021407363    0.010594866    189.87131      329.48742     -13552.443      100.81039      100.79781      103.23783    
     17000   299.27246      0.017          1.3625064     -0.020396754    0.0033327683   218.43469      251.46341     -13625.064      100.79814      100.79784      103.24798    
     17100   299.97701      0.0171         1.3745331     -0.024600255    0              171.19727      122.92883     -13745.331      100.79352      100.80296      103.25813    
     17200   300.96571      0.0172         1.3998795     -0.040800491    0             -183.53804     -48.508752     -13998.795      100.81197      100.79767      103.26829    
     17300   300.09215      0.0173         1.4264056     -0.057019931    0             -85.375967     -369.17512     -14264.056      100.78644      100.82475      103.27844    
     17400   298.82938      0.0174         1.4421043     -0.06290588   0.0167         1.362495      -0.041935843    0.0033442287  -160.56709     -5.4281258     -13624.95       100.834        100.80886      103.21752    
     16800   300.78457      0.0168         1.3450655     -0.018621543    0.02077364     203.77412      102.9841      -13450.655      100.80049      100.82397      103.22768    
     16900   301.62177      0.0169         1.3552443     -0.021407363    0.010594866    189.87131      329.48742     -13552.443      100.81039      100.79781      103.23783    
     17000   299.27246      0.017          1.3625064     -0.020396754    0.0033327683   218.43469      251.46341     -13625.064      100.79814      100.79784      103.24798    
     17100   299.97701      0.0171         1.3745331     -0.024600255    0              171.19727      122.92883     -13745.331      100.79352      100.80296      103.25813    
     17200   300.96571      0.0172         1.3998795     -0.040800491    0             -18300.75627      100.78042      103.33935    
     18000   299.97424      0.018          1.4503214     -0.023323526    0              39.012262      259.34115     -14503.214      100.77877      100.74571      103.3495     
     18100   301.55403      0.0181         1.4679912     -0.031647512    0              83.76069      -15.238293     -14679.912      100.75014      100.77672      103.35966    
     18200   300.05655      0.0182         1.4886371     -0.043417688    0             -38.511215     -117.91988     -14886.371      100.767        100.76171      103.36981    
     18300   298.81285      0.0183         1.5079707     -0.054594759    0             -334.73011     -98.613887     -15079.707      100.79583      100.73268      103.37996    
     18400   300.64364      0.0184         1.5142131     -0.05362634     0             -121.88145     -524.58556     -15142.131      100.72239      100.80607      103.39011    
     18500   299.50064      0.0185         1.5153168     -0.046629698    0             -349.99592     -77.187763     -15153.168      100.78125      100.73325      103.40026    
     18600   298.59626      0.0186         1.5154206     -0.038054612    0             -12.907554      84.421381     -15154.206      100.74551      100.73984      103.41042    
     18700   300.39071      0.0187         1.5230247     -0.036771461    0              163.53949     -38.240471     -15230.247      100.7156       100.76213      103.42057    
     18800   299.43181      0.0188         1.5140443     -0.02034681     0.0089803452   35.517105      237.54934     -15140.443      100.75241      100.71327      103.43072    
     18900   300.61133      0.0189         1.5303224     -0.027596168    0              258.23152     -26.234007     -15303.224      100.7113       100.74934      103.44087    
     19000   298.97825      0.019          1.5341815     -0.0230693      0             -28.893216      164.25781     -15341.815      100.72902      100.72353      103.45103    
     19100   299.74261      0.0191         1.5544162     -0.034661499    0             -57.203092      47.472325     -15544.162      100.73602      100.71696      103.46118    
     19200   299.81037      0.0192         1.5691899     -0.041379895    0             -25.056447     -153.37965     -15691.899      100.70334      100.75114      103.47133    
     19300   300.99451      0.0193         1.5922059     -0.055972308    0             -300.95418     -82.024516     -15922.059      100.74509      100.70479      103.48148    
     19400   299.99938      0.0194         1.601041      -0.056124704    0             -240.36549     -221.7176      -16010.41       100.71386      100.7319       103.49163    
     19500   300.3427       0.0195         1.5925322     -0.039894274    0.0085088927   45.679378     -302.4271      -15925.322      100.67639      100.75501      103.50179    
     19600   298.76171      0.0196         1.5907806     -0.030606688    0.010260486   -85.928027      284.54093     -15907.806      100.74228      100.66283      103.51194    
     19700   298.83798      0.0197         1.5849367     -0.018571597    0.016104376    346.615     -0.0230693      0             -28.893216      164.25781     -15341.815      100.72902      100.72353      103.45103    
     19100   299.74261      0.0191         1.5544162     -0.034661499    0             -57.203092      47.472325     -15544.162      100.73602      100.71696      103.46118    
     19200   299.81037      0.0192         1.5691899     -0.041379895    0             -25.056447     -153.37965     -15691.899      100.70334      100.75114      103.47133    
     19300   300.99451      0.0193         1.5922059     -0.055972308    0             -300.95418     -82.024516     -15922.059      100.74509      100.70479      103.48148    
     19400   299.99938      0.0194         1.601041      -0.056124704    0             -240.36549     -221.7176      -16010.41       100.71386      100.7319       103.49163    
     19500   300.3427       0.0195         1.5925322     -0.039894274    0.0085088927   45.679378     -302.4271         103.57285    
     20300   298.62251      0.0203         1.6667286     -0.048471024    0.0021262863   46.08179      -286.35936     -16667.286      100.65165      100.71651      103.583      
     20400   300.55252      0.0204         1.6739926     -0.048439906    0             -84.492154      63.133183     -16739.926      100.69491      100.65979      103.59316    
     20500   299.44033      0.0205         1.661816      -0.029334937    0.01217658     112.04222      112.09678     -16618.16       100.66655      100.6721       103.60331    
     20600   300.50342      0.0206         1.6754848     -0.034533278    0              198.93804      64.732765     -16754.848      100.64173      100.68137      103.61346    
     20700   300.58224      0.0207         1.6751189     -0.025149125    0.00036593311  17.652818      259.75567     -16751.189      100.67655      100.64015      103.62361    
     20800   301.30911      0.0208         1.6901604     -0.030519283    0              152.78329      64.282337     -16901.604      100.64708      100.66659      103.63377    
     20900   300.61831      0.0209         1.705151      -0.035580326    0             -10.347244     -51.339289     -17051.51       100.65858      100.66088      103.64392    
     21000   300.4957       0.021          1.7406758     -0.060219485    0             -332.70105     -163.17998     -17406.758      100.68389      100.63953      103.65407    
     21100   299.88818      0.0211         1.750883      -0.059996418    0             -270.26257     -423.43601     -17508.83       100.63742      100.68722      103.66422    
     21200   299.39096      0.0212         1.7552772     -0.055748386    0             -349.76732     -355.71471     -17552.772      100.65806      100.66316      103.67437    
     21300   300.16741      0.0213         1.7559296     -0.04748064     0             -295.81292     -99.833876     -17559.296      100.66434      100.6295       103.68453    
     21400   300.95431      0.0214         1.7440231     -0.028571128    0.011906464    199.79556     -21.156123     -17440.231      100.60929      100.65827      103.69468    
     21500   300.43296      0.0215         1.728362      -0.0062553881   0.027567611    266.43852      467.62811     -17283.62       100.63825      100.60745      103.70483    
     21600   300.86763      0.0216         1.7396257     -0.011105073    0.016303833    290.1939       357.20641     -17396.257      100.62605      100.60645      103.71498    
     21700   299.3131       0.0217         1.7617261     -0.024544753    0              273.12337      181.63275     -17617.261      100.60445      100.63217      103.72514    
     21800   301.44755      0.0218         1.7850219     -0.038354382    0             -64.125477      13.798997     -17850.219      100.63693      100.60936      103.73529    
     21900   298.97631      0.0219         1.7954936     -0.039791822    0             -56.779104     -74.837187     -17954.936      100.61929      100.62015      103.74544    
     22000   298.62744      0.022          1.8057473     -0.043538376    0             -117.77352     -160.25828     -            -295.81292     -99.833876     -17559.296      100.66434      100.6295       103.68453    
     21400   300.95431      0.0214         1.7440231     -0.028571128    0.011906464    199.79556     -21.156123     -17440.231      100.60929      100.65827      103.69468    
     21500   300.43296      0.0215         1.728362      -0.0062553881   0.027567611    266.43852      467.62811     -17283.62       100.63825      100.60745      103.70483    
     21600   300.86763      0.0216         1.7396257     -0.011105073    0.016303833    290.1939       357.20641     -17396.257      100.62605      100.60645      103.71498    
     21700   299.3131       0.0217         1.7617261     -0.024544753    0              273.12337      181.63275     -17617.261      100.60445      100.63217      103.72514    
     21800   301.44755      0.0218         1.7850219     -0.038354382    0             -64.125477      13.798997     -17850.219      100.6369600   298.15547      0.0226         1.8182997     -0.0090616192   0.013327793    254.13955      389.04631     -18182.997      100.58633      100.57023      103.81651    
     22700   300.69528      0.0227         1.8437952     -0.0263503      0              48.357464      228.97123     -18437.952      100.59734      100.56711      103.82666    
     22800   300.19027      0.0228         1.8726156     -0.046411256    0             -17.542149     -259.02061     -18726.156      100.56128      100.61798      103.83681    
     22900   299.64008      0.0229         1.9052498     -0.068069829    0             -470.3271      -168.50569     -19052.498      100.62814      100.55402      103.84696    
     23000   299.9356       0.023          1.9087353     -0.061256615    0             -360.19406     -459.00388     -19087.353      100.58485      100.59657      103.85711    
     23100   300.415        0.0231         1.9137746     -0.056815622    0             -134.33384     -257.12318     -19137.746      100.56613      100.59628      103.86727    
     23200   300.62489      0.0232         1.9030572     -0.03895519     0.010717458   -197.16675      116.1815      -19030.572      100.59817      100.54163      103.87742    
     23300   299.97703      0.0233         1.906012      -0.034347073    0.007762636    220.20729      87.641011     -19060.12       100.53849      100.58097      103.88757    
     23400   301.25988      0.0234         1.9051383     -0.025314861    0.0086363732   199.18944      273.77146     -19051.383      100.55542      100.55105      103.89772    
     23500   300.71696      0.0235         1.9096749     -0.021039662    0.004099723    177.70203      347.1588      -19096.749      100.56517      100.53163      103.90788    
     23600   299.64982      0.0236         1.9208308     -0.021942451    0              391.48907      116.76689     -19208.308      100.51156      100.57477      103.91803    
     23700   299.74996      0.0237         1.927794      -0.020505718    0             -30.926665      246.25679     -19277.94       100.56017      100.53105      103.92818    
     23800   299.91883      0.0238         1.9653588     -0.048796238    0             -177.7739      -199.57757     -19653.588      100.55902      100.54641      103.93833    
     23900   299.57707      0.0239         1.9934499     -0.068067281    0             -239.42892     -443.04173     -19934.499      100.53102      100.58036      103.94848    
     24000   300.31388      0.024          2.0082909     -0.072952746    0             -546.87107     -307.00172     -20082.909      100.59435      100.51044      103.95864    
     24100   299.39186      0.0241         1.996394      -0.052793911    0.011896902   -112.75462     -301.50287     -19963.94       100.53167      100.55224      103.96879    
     24200   300.49707      0.0242         1.98611       -0.034204664    0.022180864    101.863       -59.043682     -19861.1        100.5168       100.54537      103.97894    
     24300   299.79969      0.0243         1.9825822     -0.023019838    0.02570867     68.06847       377.57538     -19825.822      100.55831    116.76689     -19208.308      100.51156      100.57477      103.91803    
     23700   299.74996      0.0237         1.927794      -0.020505718    0             -30.926665      246.25679     -19277.94       100.56017      100.53105      103.92818    
     23800   299.91883      0.0238         1.9653588     -0.048796238    0             -177.7739      -199.57757     -19653.588      100.55902      100.54641      103.93833    
     23900   299.57707      0.0239         1.9934499     -0.068067281    0             -239.42892     -443.04173     -19934.499      100.53102      100.58036      103.94848    
     24000   300.31388      0.024          2.0082909     -0.072952746    0             -546.87107     -307.00172     -20082.909      100.59435      100.51044      103.95864    
     24100   299.39186      0.0241         1.996394      -0.052793911    0.011896902   -112.75462     -301.50287     -19963.94       100.53167      100.55224      10349         2.0583051     -0.045302639    0             -197.28465     -117.88753     -20583.051      100.52324      100.49494      104.05001    
     25000   299.7348       0.025          2.0611455     -0.042857578    0              108.05845     -202.04447     -20611.455      100.47946      100.52373      104.06016    
     25100   300.20455      0.0251         2.0656791     -0.040462644    0             -145.06758      85.338027     -20656.791      100.52336      100.46983      104.07031    
     25200   299.12715      0.0252         2.0660832     -0.032869434    0              48.106472      33.15634      -20660.832      100.49828      100.4828       104.08046    
     25300   300.02722      0.0253         2.0796264     -0.036708286    0              289.60501     -123.96118     -20796.264      100.45007      100.52132      104.09061    
     25400   299.1392       0.0254         2.0827152     -0.030437204    0             -174.11706      379.64973     -20827.152      100.53362      100.42541      104.10077    
     25500   299.42954      0.0255         2.0895905     -0.028474853    0              179.32701     -81.172395     -20895.905      100.4522       100.50512      104.11092    
     25600   299.82244      0.0256         2.108854      -0.039412386    0              5.0320285     -275.41466     -21088.54       100.44864      100.51481      104.12107    
     25700   299.14841      0.0257         2.1189354     -0.041247681    0             -324.25621      113.10796     -21189.354      100.52682      100.4261       104.13122    
     25800   298.9268       0.0258         2.1294562     -0.043417132    0              93.46568      -273.7628      -21294.562      100.43314      100.51255      104.14138    
     25900   301.03732      0.0259         2.1340296     -0.040418058    0             -5.1754773     -86.972547     -21340.296      100.46765      100.46487      104.15153    
     26000   300.62956      0.026          2.1483787     -0.046043855    0             -181.26839      209.85442     -21483.787      100.50234      100.41901      104.16168    
     26100   300.4617       0.0261         2.148342      -0.037740852    3.671313e-05   240.86971     -162.61171     -21483.42       100.42823      100.48278      104.17183    
     26200   301.07619      0.0262         2.147336      -0.028609627    0.0010426512   99.75121       231.33341     -21473.36       100.46917      100.42777      104.18198    
     26300   299.59054      0.0263         2.1530004     -0.026936571    0              164.79974      296.26695     -21530.004      100.46571      100.41934      104.19214    
     26400   299.34998      0.0264         2.1614918     -0.027550304    0              345.31327      93.315268     -21614.918      100.41163      100.46165      104.20229    
     26500   299.45152      0.0265         2.1741518     -0.031754229    0              56.830501      124.82852     -21741.518      100.45976      100.41945      104.21244    
     26600   301.10645      0.0266         2.2116624     -0.058984023    0             -143.4272      -98.249226     -22116.624      100.46216      100.42772      104.296      100.46765      100.46487      104.15153    
     26000   300.62956      0.026          2.1483787     -0.046043855    0             -181.26839      209.85442     -21483.787      100.50234      100.41901      104.16168    
     26100   300.4617       0.0261         2.148342      -0.037740852    3.671313e-05   240.86971     -162.61171     -21483.42       100.42823      100.48278      104.17183    
     26200   301.07619      0.0262         2.147336      -0.028609627    0.0010426512   99.75121       231.33341     -21473.36       100.46917      100.42777      104.18198    
     26300   299.59054      0.0263         2.1530004     -0.026936571    0              164.79974      296.26695     -21530.004      100.46571      100.41934      104.19214    
     26400   299.34998      0.0264         2.1614918     -0.027550304    0              345.31327      93.315268     -21614.918      100.41163      100.46165      104.20229    
     26500   2-0.0077602246   0.030543477    467.03224      274.08484     -22148.036      100.38201      100.42622      104.28351    
     27300   300.90084      0.0273         2.2308498     -0.016021487    0.014497275    274.11774      174.49636     -22308.498      100.39193      100.41121      104.29366    
     27400   301.14823      0.0274         2.2618333     -0.036970863    0             -92.561184      128.81878     -22618.333      100.4381       100.37486      104.30381    
     27500   299.69529      0.0275         2.2833763     -0.047591456    0             -37.149916     -247.48686     -22833.763      100.38987      100.43728      104.31396    
     27600   300.1374       0.0276         2.298154      -0.053719933    0             -302.63077     -158.02251     -22981.54       100.41766      100.39652      104.32412    
     27700   298.80002      0.0277         2.2955114     -0.044954034    0.002642546   -281.65369     -145.12997     -22955.114      100.42497      100.38439      104.33427    
     27800   300.63815      0.0278         2.3034351     -0.046502631    0              19.302365     -271.6282      -23034.351      100.37652      100.42133      104.34442    
     27900   299.35417      0.0279         2.3003231     -0.037893035    0.0031119895   16.568161      204.53489     -23003.231      100.4043       100.37186      104.35457    
     28000   300.28022      0.028          2.3002333     -0.030014492    0.0032018182   127.89476      290.45719     -23002.333      100.39698      100.35994      104.36472    
     28100   301.2334       0.0281         2.2900654     -0.012206873    0.013369701    478.14723      229.90874     -22900.654      100.3356       100.40625      104.37488    
     28200   300.03628      0.0282         2.3070066     -0.019927812    0              196.97769      399.9706      -23070.066      100.39419      100.33938      104.38503    
     28300   300.11247      0.0283         2.3236911     -0.027328116    0              183.06988      215.34185     -23236.911      100.38144      100.35476      104.39518    
     28400   301.60795      0.0284         2.3454877     -0.040759319    0              86.564432     -341.77147     -23454.877      100.32881      100.42358      104.40533    
     28500   300.58345      0.0285         2.371024      -0.057530867    0             -458.00904     -173.3175      -23710.24       100.41931      100.34142      104.41549    
     28600   298.84158      0.0286         2.3817751     -0.059919831    0             -349.15669     -337.09271     -23817.751      100.37742      100.37376      104.42564    
     28700   299.42752      0.0287         2.3827698     -0.052188701    0             -88.633643     -416.34887     -23827.698      100.33762      100.39646      104.43579    
     28800   299.80585      0.0288         2.3721296     -0.034679058    0.010640188   -241.64023      154.77256     -23721.296      100.40148      100.31329      104.44594    
     28900   301.00587      0.0289         2.3720446     -0.027421896    0.010725198    255.06335      117.02145     -23720.446      100.32399      100.36809      104.45609    
     29000   2990.33938      104.38503    
     28300   300.11247      0.0283         2.3236911     -0.027328116    0              183.06988      215.34185     -23236.911      100.38144      100.35476      104.39518    
     28400   301.60795      0.0284         2.3454877     -0.040759319    0              86.564432     -341.77147     -23454.877      100.32881      100.42358      104.40533    
     28500   300.58345      0.0285         2.371024      -0.057530867    0             -458.00904     -173.3175      -23710.24       100.41931      100.34142      104.41549    
     28600   298.84158      0.0286         2.3817751     -0.059919831    0             -349.15669     -337.09271     -23817.751      100.37742      100.37376      104.42564    
     28700   299.42752      0.0287         2.3827698     -0.052188701    0             -88.633643     -416.34887     -23827.698      100.33762      100.39646      104.43579    
     28800   299.80585      0.0288          -283.11211     -636.24983     -24711.2        100.30259      100.38792      104.51701    
     29600   300.40361      0.0296         2.4749497     -0.068645797    0             -322.90783     -309.35535     -24749.497      100.35853      100.31822      104.52716    
     29700   300.44302      0.0297         2.4596243     -0.045634911    0.015325438   -203.46656      16.600682     -24596.243      100.35342      100.29598      104.53731    
     29800   299.40028      0.0298         2.4476004     -0.026063952    0.02734932     284.90628     -92.953396     -24476.004      100.27072      100.35664      104.54746    
     29900   300.38244      0.0299         2.4521095     -0.022566576    0.022840206    103.07784      413.7628      -24521.095      100.33881      100.27114      104.55762    
     30000   300.01801      0.03           2.4551679     -0.016863045    0.019781856    185.62267      206.13614     -24551.679      100.31512      100.2925       104.56777    
     30100   299.0639       0.0301         2.4734755     -0.024947187    0.0014742333   267.04556      17.483112     -24734.755      100.27735      100.32111      104.57792    
     30200   299.8006       0.0302         2.4861841     -0.027402972    0             -97.469841      125.85589     -24861.841      100.33319      100.26926      104.58807    
     30300   300.85148      0.0303         2.5150877     -0.046601223    0             -74.03451      -191.58489     -25150.877      100.30887      100.30085      104.59823    
     30400   299.28414      0.0304         2.52961       -0.05311711     0             -169.581       -360.82151     -25296.1        100.2883       100.3222       104.60838    
     30500   300.60996      0.0305         2.5470218     -0.062938704    0             -473.2616      -205.75141     -25470.218      100.33622      100.2691       104.61853    
     30600   301.18982      0.0306         2.5423579     -0.051533944    0.004663948   -145.79448     -253.27294     -25423.579      100.28072      100.31244      104.62868    
     30700   300.11439      0.0307         2.5317751     -0.033736084    0.015246731    125.80793      24.387166     -25317.751      100.27611      100.28459      104.63883    
     30800   301.07796      0.0308         2.5211187     -0.015727849    0.025903141    128.0096       523.0033      -25211.187      100.32753      100.20736      104.64899    
     30900   300.6569       0.0309         2.5208533     -0.0085880982   0.026168516    716.73638      251.4867      -25208.533      100.22531      100.29601      104.65914    
     31000   298.98582      0.031          2.5397616     -0.019037072    0.0072601668   390.34539      281.99373     -25397.616      100.25855      100.26006      104.66929    
     31100   300.12366      0.0311         2.5733291     -0.042619212    0             -145.07328      190.90698     -25733.291      100.31329      100.22164      104.67944    
     31200   300.85002      0.0312         2.5965873     -0.054837061    0             -73.609488     -309.79856     -25965.873      100.24637      100.29906      104.6896     
     31300   298.64528      0.0313        
     30600   301.18982      0.0306         2.5423579     -0.051533944    0.004663948   -145.79448     -253.27294     -25423.579      100.28072      100.31244      104.62868    
     30700   300.11439      0.0307         2.5317751     -0.033736084    0.015246731    125.80793      24.387166     -25317.751      100.27611      100.28459      104.63883    
     30800   301.07796      0.0308         2.5211187     -0.015727849    0.025903141    128.0096       523.0033      -25211.187      100.32753      100.20736      104.64899    
     30900   300.6569       0.0309         2.5208533     -0.0085880982   0.026168516    716.73638      251.4867      -25208.533      100.22531      100.29601      104.65914    
     31000   298.98582      0.031          2.5397616     -0.019037072    0.0072601668   390.34539      281.99373     -25397.616      100.25855      100.26006      104.66929    
     31100   300.12366      0.0311         2.5733291     -0.042649863     -26035.298      100.20053      100.26193      104.75051    
     31900   299.39158      0.0319         2.6294711     -0.030899909    0             -26.004464      225.11456     -26294.711      100.26321      100.20598      104.76066    
     32000   299.76639      0.032          2.6729018     -0.061016512    0             -197.59225     -148.79377     -26729.018      100.24902      100.2316       104.77081    
     32100   299.6623       0.0321         2.6846712     -0.061651751    0             -242.10027     -507.91831     -26846.712      100.2199       100.27548      104.78097    
     32200   300.73227      0.0322         2.704643      -0.070817959    0             -603.10574     -272.07398     -27046.43       100.28497      100.19999      104.79112    
     32300   299.81463      0.0323         2.6986906     -0.0565177      0.0059524307  -187.31395     -237.23463     -26986.906      100.22604      100.239        104.80127    
     32400   301.5529       0.0324         2.6780658     -0.029127344    0.026577151    149.89384      38.538769     -26780.658      100.20184      100.23204      104.81142    
     32500   298.55469      0.0325         2.6629889     -0.0091509385   0.041654103    260.89406      560.75862     -26629.889      100.25254      100.15067      104.82157    
     32600   299.9782       0.0326         2.6696757     -0.0094781514   0.034967235    497.97014      360.31592     -26696.757      100.19574      100.19947      104.83173    
     32700   300.64454      0.0327         2.6927617     -0.023021769    0.011881254    402.22576      261.04674     -26927.617      100.19351      100.20609      104.84188    
     32800   300.18966      0.0328         2.7129065     -0.032228833    0             -107.84178      182.10292     -27129.065      100.23736      100.16907      104.85203    
     32900   299.66287      0.0329         2.7402495     -0.048494045    0             -129.68856     -371.99723     -27402.495      100.19039      100.23058      104.86218    
     33000   300.85657      0.033          2.7677263     -0.066488415    0             -383.70475     -434.12109     -27677.263      100.21337      100.21222      104.87234    
     33100   300.301        0.0331         2.7677847     -0.058235446    0             -487.99694     -257.64706     -27677.847      100.23839      100.17924      104.88249    
     33200   298.59738      0.0332         2.7607416     -0.04558244     0.0070431467  -101.80868     -303.43582     -27607.416      100.1736       100.21809      104.89264    
     33300   299.94654      0.0333         2.7505478     -0.030202953    0.017236907    131.93157      127.38688     -27505.478      100.19393      100.17043      104.90279    
     33400   302.01555      0.0334         2.7452431     -0.018180554    0.022541575    148.63609      417.61457     -27452.431      100.20865      100.138        104.91294    
     33500   299.84538      0.0335         2.7449036     -0.0096494935   0.022881168    740.07701      331.07164     -27449.036      100.12162      100.20123      104.9231     
     33600   299.26069      0.0336         2.75862       -0.014471     0.0329         2.7402495     -0.048494045    0             -129.68856     -371.99723     -27402.495      100.19039      100.23058      104.86218    
     33000   300.85657      0.033          2.7677263     -0.066488415    0             -383.70475     -434.12109     -27677.263      100.21337      100.21222      104.87234    
     33100   300.301        0.0331         2.7677847     -0.058235446    0             -487.99694     -257.64706     -27677.847      100.23839      100.17924      104.88249    
     33200   298.59738      0.0332         2.7607416     -0.04558244     0.0070431467  -101.80868     -303.43582     -27607.416      100.1736       100.21809      104.89264    
     33300   299.94654      0.0333         2.7505478     -0.030202953    0.017236907    131.93157      127.38688     -27505.478      100.19393      100.17043      104.90279    
     33400   302.01555      0.0334         2.7452431     -0.018180554    0.022541575    1 100.13553      100.18853      104.98401    
     34200   301.42953      0.0342         2.8337924     -0.035527707    0.022293895    98.075396      237.97235     -28337.924      100.17572      100.12281      104.99416    
     34300   299.96587      0.0343         2.8424708     -0.03501377     0.013615537    167.74962      313.67491     -28424.708      100.16175      100.12594      105.00431    
     34400   300.89055      0.0344         2.8341615     -0.017812654    0.021924818    419.90798      233.03412     -28341.615      100.11129      100.15973      105.01447    
     34500   300.73444      0.0345         2.8411814     -0.015204765    0.014904924    203.54042      404.07622     -28411.814      100.15766      100.10588      105.02462    
     34600   299.51222      0.0346         2.8623003     -0.025955647    0              305.09556      112.05324     -28623.003      100.12027      100.14084      105.03477    
     34700   301.03032      0.0347         2.8814707     -0.035740537    0             -31.943329     -155.55135     -28814.707      100.12458      100.1524       105.04492    
     34800   299.9284       0.0348         2.9083973     -0.054377427    0             -491.5506      -237.08577     -29083.973      100.18459      100.10606      105.05507    
     34900   299.94097      0.0349         2.9402156     -0.077782764    0             -374.84625     -606.25782     -29402.156      100.13327      100.16001      105.06523    
     35000   299.64005      0.035          2.9406223     -0.068604331    0             -391.60364     -505.6793      -29406.223      100.12681      100.15486      105.07538    
     35100   300.58648      0.0351         2.9262544     -0.045167767    0.014367905   -307.93378     -15.28378      -29262.544      100.16242      100.09258      105.08553    
     35200   301.26707      0.0352         2.9054538     -0.017200951    0.035168586    311.36054      90.979552     -29054.538      100.08534      100.13621      105.09568    
     35300   299.42467      0.0353         2.9034113     -0.0090644468   0.037211037    469.19172      421.15489     -29034.113      100.08801      100.10747      105.10584    
     35400   300.8934       0.0354         2.9084296     -0.0066559145   0.032192759    319.35366      527.35604     -29084.296      100.12562      100.06495      105.11599    
     35500   302.70529      0.0355         2.9331737     -0.022200754    0.0074486933   243.36337      163.06056     -29331.737      100.08337      100.11941      105.12614    
     35600   300.17566      0.0356         2.9615178     -0.040623149    0              126.77596     -41.477533     -29615.178      100.09321      100.11173      105.13629    
     35700   299.67839      0.0357         2.9915736     -0.059668676    0             -459.54583     -93.553775     -29915.736      100.13969      100.07664      105.14644    
     35800   300.86825      0.0358         2.9985587     -0.057637638    0             -228.02128     -438.10226     -29985.587      100.07784      100.13808      105.1566     
     35900   300.96966      0.0359         3.0016218     -0.05456013     0             -2414538     -0.017200951    0.035168586    311.36054      90.979552     -29054.538      100.08534      100.13621      105.09568    
     35300   299.42467      0.0353         2.9034113     -0.0090644468   0.037211037    469.19172      421.15489     -29034.113      100.08801      100.10747      105.10584    
     35400   300.8934       0.0354         2.9084296     -0.0066559145   0.032192759    319.35366      527.35604     -29084.296      100.12562      100.06495      105.11599    
     35500   302.70529      0.0355         2.9331737     -0.022200754    0.0074486933   243.36337      163.06056     -29331.737      100.08337      100.11941      105.12614    
     35600   300.17566      0.0356         2.9615178     -0.040623149    0              126.77596     -41.477533     -29615.178      100.09321      100.11173      105.13629    
     35700   299.67839      0.0357         2.9915736     -0.059668676    0             -459.54583     -93.553775        105.21751    
     36500   299.90306      0.0365         3.0444559     -0.049664479    0             -184.82927     -167.16351     -30444.559      100.07989      100.07578      105.22766    
     36600   299.96115      0.0366         3.0583698     -0.053893092    0             -385.40353     -222.5917      -30583.698      100.09999      100.05172      105.23781    
     36700   298.37015      0.0367         3.063779      -0.052081833    0             -104.82183     -254.45426     -30637.79       100.05816      100.07863      105.24797    
     36800   301.83972      0.0368         3.0689631     -0.050225491    0             -222.82289     -127.22577     -30689.631      100.07229      100.05657      105.25812    
     36900   299.81202      0.0369         3.0704326     -0.044813873    0             -97.927863      46.072098     -30704.326      100.07107      100.04264      105.26827    
     37000   299.45612      0.037          3.0641886     -0.031242008    0.0062440006   130.33664      15.407493     -30641.886      100.03218      100.06193      105.27842    
     37100   299.63791      0.0371         3.0672186     -0.02506022     0.0032140033   172.15802      322.60487     -30672.186      100.05512      100.0216       105.28858    
     37200   301.16291      0.0372         3.0731835     -0.020763521    0              245.35935      316.84698     -30731.835      100.05483      100.01296      105.29873    
     37300   299.45155      0.0373         3.0925449     -0.029548456    0              329.3753       8.0104422     -30925.449      99.986862      100.08134      105.30888    
     37400   300.07011      0.0374         3.1165847     -0.044612622    0             -138.62541     -61.089768     -31165.847      100.06092      100.01894      105.31903    
     37500   301.35523      0.0375         3.141705      -0.060008051    0             -481.95977     -188.09036     -31417.05       100.1005       99.994494      105.32918    
     37600   299.55544      0.0376         3.1496915     -0.058862349    0             -200.88876     -543.36288     -31496.915      100.00484      100.0806       105.33934    
     37700   301.3901       0.0377         3.155136      -0.055171104    0             -298.51134     -194.10309     -31551.36       100.04732      100.01767      105.34949    
     37800   299.31841      0.0378         3.1382121     -0.031322337    0.016923872   -126.04171      146.50251     -31382.121      100.0596       99.981192      105.35964    
     37900   300.93794      0.0379         3.1368609     -0.023328361    0.018275013    344.97853      30.815978     -31368.609      99.981361      100.04259      105.36979    
[...]
    133100   299.86488      0.1331         9.1392654     -0.016602367    0.0053       9.1220072     -0.025292141    0.0019949023   61.579637      101.56795     -91220.072      97.188717      97.19115       114.96363    
    132500   299.97508      0.1325         9.1112923     -0.01336101     0.012709807    304.10337      326.33162     -91112.923      97.182243      97.175994      114.97378    
    132600   300.35319      0.1326         9.116311      -0.015475732    0.0076910631   212.64297      162.01341     -91163.11       97.186455      97.173774      114.98394    
    132700   300.11092      0.1327         9.1274992     -0.019911135    0             -111.07682     -71.554419     -91274.992      97.193763      97.189054      114.99409    
    132800   299.35909      0.1328         9.1446618     -0.029788161    0             -267.68477     -177.99631     -91446.618      97.187623      97.196079      115.00424    
    132900   298.9094       0.1329         9.1284957     -0.0088478029   0.016166113    43.306495        97.028295      115.08546    
    133700   300.51722      0.1337         9.1494691     -0.0088119613   0.0096560574   141.10951      169.36454     -91494.691      97.261064      97.055655      115.09561    
    133800   299.96572      0.1338         9.1607014     -0.018440263    0             -57.058289      85.639313     -91607.014      97.1878        97.122362      115.10576    
    133900   298.82385      0.1339         9.1694144     -0.023061352    0             -56.201524     -83.545738     -91694.144      97.089851      97.225203      115.11592    
    134000   299.76968      0.134          9.1695991     -0.018047614    0             -61.878057     -150.14892     -91695.991      97.051128      97.267426      115.12607    
    134100   298.41941      0.1341         9.1508823      0.0018308653   0.01871679    -19.861188     -33.171208     -91508.823      97.06951       97.235867      115.13622    
    134200   298.33655      0.1342         9.1736751     -0.019506926    0              13.312548      62.147102     -91736.751      97.115495      97.175364      115.14637    
    134300   299.51938      0.1343         9.1722618     -0.015465774    0.0014132908   10.767498      162.53981     -91722.618      97.154263      97.12753       115.15652    
    134400   301.09117      0.1344         9.1668779     -0.0070138256   0.0067971488   20.137928      137.21216     -91668.779      97.170765      97.106551      115.16668    
    134500   299.84831      0.1345         9.1836457     -0.019882364    0             -9.2566222      0.014356104   -91836.457      97.156747      97.12113       115.17683    
    134600   298.09777      0.1346         9.1845948     -0.01648261     0              71.116351     -52.950175     -91845.948      97.116607      97.156008      115.18698    
    134700   298.92095      0.1347         9.1838678     -0.012315749    0.00072699928 -0.29215338    -21.478736     -91838.678      97.10237       97.171034      115.19713    
    134800   300.12324      0.1348         9.1817366     -0.0080811169   0.0028581075   2.100785       96.417846     -91817.366      97.097376      97.16747       115.20729    
    134900   299.1604       0.1349         9.1774826     -0.0030202395   0.0071121626   221.67135      149.43979     -91774.826      97.074297      97.168986      115.21744    
    135000   299.67566      0.135          9.2097956     -0.031313556    0              51.777656     -85.128744     -92097.956      97.090004      97.168874      115.22759    
    135100   299.73452      0.1351         9.1922534     -0.0096342907   0.017542153   -159.64901     -161.23853     -91922.534      97.139556      97.127177      115.23774    
    135200   301.31706      0.1352         9.2291299     -0.040965263    0             -290.00995     -350.80223     -92291.299      97.207916      97.067515      115.24789    
    135300   299.70993      0.1353         9.214109      -0.021759726    0.015020809   -171.72406      107.29085     -92141.09       97.258401      96.987921      115.25805    
    135400   299.581        0.1354         9.2045505     -0.0084339079   0.024579368    197.90254      312315749    0.00072699928 -0.29215338    -21.478736     -91838.678      97.10237       97.171034      115.19713    
    134800   300.12324      0.1348         9.1817366     -0.0080811169   0.0028581075   2.100785       96.417846     -91817.366      97.097376      97.16747       115.20729    
    134900   299.1604       0.1349         9.1774826     -0.0030202395   0.0071121626   221.67135      149.43979     -91774.826      97.074297      97.168986      115.21744    
    135000   299.67566      0.135          9.2097956     -0.031313556    0              51.777656     -85.128744     -92097.956      97.090004      97.168874      115.22759    
    135100   299.73452      0.1351         9.1922534     -0.0096342907   0.017542153   -159.64901     -161.23853     -91922.534      97.139556      97.127177      115.23774    
    135200   301.31706      0.1352         9.2291299     -0.040965263    0             -290.00995     -350.80223     -92291.29996    
    136000   299.64789      0.136          9.2316574     -0.0088626615   0.017166836    22.586931      163.67382     -92316.574      97.065907      97.136082      115.32911    
    136100   300.5565       0.1361         9.2296293     -0.0030969876   0.019194924    138.35179      246.44453     -92296.293      97.081016      97.113467      115.33926    
    136200   300.04437      0.1362         9.2326308     -0.005748417    0.016193402    120.57364      97.372594     -92326.308      97.093999      97.10284       115.34942    
    136300   298.55123      0.1363         9.2417788     -0.012129412    0.0070454359  -63.141565     -16.926621     -92417.788      97.148285      97.049466      115.35957    
    136400   301.18179      0.1364         9.256553      -0.021703442    0             -255.71422     -267.59206     -92565.53       97.202427      97.010858      115.36972    
    136500   299.54655      0.1365         9.2590274     -0.018690839    0             -279.56898     -116.18419     -92590.274      97.224094      96.98138       115.37987    
    136600   299.81669      0.1366         9.2698463     -0.024894493    0             -137.73578     -55.507502     -92698.463      97.163343      97.02197       115.39003    
    136700   299.79132      0.1367         9.2513499     -0.0044101705   0.018496451    95.869266      74.336444     -92513.499      97.065084      97.10657       115.40018    
    136800   299.73626      0.1368         9.2449055      0.0017147865   0.024940872    107.23748      150.97504     -92449.055      97.010241      97.148217      115.41033    
    136900   299.0309       0.1369         9.2576206     -0.010120729    0.012225713    104.15853      53.150707     -92576.206      96.979491      97.171253      115.42048    
    137000   300.71712      0.137          9.2681429     -0.016994457    0.0017034308  -34.187791     -45.222372     -92681.429      96.978723      97.18636       115.43063    
    137100   299.11081      0.1371         9.2440215      0.0085661913   0.025824858   -34.860119      13.219682     -92440.215      96.982905      97.160363      115.44079    
    137200   299.98984      0.1372         9.2634368     -0.0077685257   0.0064095399  -28.798887     -14.627818     -92634.368      97.030663      97.114032      115.45094    
    137300   301.25367      0.1373         9.2627847     -0.0050157933   0.0070616824  -90.487818     -10.433667     -92627.847      97.097094      97.052372      115.46109    
    137400   299.75214      0.1374         9.2740719     -0.014551122    0             -25.358079      106.62978     -92740.719      97.152816      96.980194      115.47124    
    137500   299.86899      0.1375         9.2683934     -0.0079360827   0.0056784385   38.494466      30.587529     -92683.934      97.179864      96.94623       115.4814     
    137600   300.83615      0.1376         9.290513      -0.027989026    0              13.002302     -53.438063     -92905.13       97.211799      96.925259      115.49155    
    137700   300.25174      0.1377         9.2853266     -0.019404937    0.0051864142  -41.135091     -15.781172     -92853.266   -34.187791     -45.222372     -92681.429      96.978723      97.18636       115.43063    
    137100   299.11081      0.1371         9.2440215      0.0085661913   0.025824858   -34.860119      13.219682     -92440.215      96.982905      97.160363      115.44079    
    137200   299.98984      0.1372         9.2634368     -0.0077685257   0.0064095399  -28.798887     -14.627818     -92634.368      97.030663      97.114032      115.45094    
    137300   301.25367      0.1373         9.2627847     -0.0050157933   0.0070616824  -90.487818     -10.433667     -92627.847      97.097094      97.052372      115.46109    
    137400   299.75214      0.1374         9.2740719     -0.014551122    0             -25.358079      106.62978     -92740.719      97.152816      96.980194      115.47124    
    137500   299.86899      0.1375         9.2683934     -0.0079360827   0.0056784385   38.494466      30.587529     -92683.934      97.179864      96.95004      0.1383         9.3032949     -0.012234091    0.0097419726   12.663119     -115.39183     -93032.949      97.057105      97.045744      115.56261    
    138400   300.91637      0.1384         9.3152462     -0.020067895    0              88.558039     -66.754225     -93152.462      97.064408      97.02947       115.57276    
    138500   300.30909      0.1385         9.3020863     -0.0035387403   0.013159869    179.11342      185.99516     -93020.863      97.109057      96.965382      115.58292    
    138600   298.81578      0.1386         9.2983667      0.00096618103  0.016879421    94.463688      123.18964     -92983.667      97.148695      96.919001      115.59307    
    138700   299.77173      0.1387         9.3251521     -0.021836681    0             -192.69325     -89.687734     -93251.521      97.185677      96.907811      115.60322    
    138800   299.59298      0.1388         9.319486      -0.01415362     0.0056661069  -156.6386      -118.02805     -93194.86       97.188233      96.898043      115.61337    
    138900   298.75356      0.1389         9.3056848      0.0024540166   0.019467321    137.28857      19.136923     -93056.848      97.152693      96.896327      115.62353    
    139000   300.0881       0.139          9.3155304     -0.005186067    0.0096217278   141.27311      8.1409446     -93155.304      97.138295      96.920495      115.63368    
    139100   300.06763      0.1391         9.3123182     -0.0012979376   0.012833948   -41.786101      65.194181     -93123.182      97.126904      96.917654      115.64383    
    139200   297.93909      0.1392         9.3199926     -0.0082767446   0.0051595732   32.663087     -15.000456     -93199.926      97.096146      96.943655      115.65398    
    139300   298.43929      0.1393         9.3107979      0.0016682542   0.014354277    20.161155     -81.175311     -93107.979      97.056145      96.982888      115.66413    
    139400   299.77443      0.1394         9.3310068     -0.016964589    0             -135.0395      -149.30538     -93310.068      97.033957      97.012467      115.67429    
    139500   299.76064      0.1395         9.3099781      0.0048532977   0.021028708   -16.45089      -25.32658      -93099.781      96.989198      97.035392      115.68444    
    139600   299.74839      0.1396         9.3211073     -0.0040018771   0.0098994767   6.6900763      12.391454     -93211.073      96.931285      97.08821       115.69459    
    139700   299.07365      0.1397         9.3263519     -0.0091265349   0.0046548401   288.91931      168.76348     -93263.519      96.87591       97.118794      115.70474    
    139800   300.89343      0.1398         9.3286258     -0.010486464    0.0023809302   18.847239     -28.467806     -93286.258      96.894723      97.117595      115.7149     
    139900   299.60311      0.1399         9.3502091     -0.027617273    0             -123.59492     -157.29227     -93502.091      96.916183      97.107021      115.72505    
    140000   298.4527       0.14           9.3440938     -0.018645695    0.006115236   -3.0192892     -142.39841     -93440.938      96.916733      97.0891     -93107.979      97.056145      96.982888      115.66413    
    139400   299.77443      0.1394         9.3310068     -0.016964589    0             -135.0395      -149.30538     -93310.068      97.033957      97.012467      115.67429    
    139500   299.76064      0.1395         9.3099781      0.0048532977   0.021028708   -16.45089      -25.32658      -93099.781      96.989198      97.035392      115.68444    
    139600   299.74839      0.1396         9.3211073     -0.0040018771   0.0098994767   6.6900763      12.391454     -93211.073      96.931285      97.08821       115.69459    
    139700   299.07365      0.1397         9.3263519     -0.0091265349   0.0046548401   288.91931      168.76348     -93263.519      96.87591       97.118794      115.70474    
    139800   300.89343      0.1398         9.3286258     -0.010486464    0.0023809302   18.847239     -28.467806     -93286.258      96.894723      97.117595      115.7149     
9.360192      -0.020424162    0             -214.51877     -203.6982      -93601.92       97.067113      96.926111      115.79611    
    140700   302.32414      0.1407         9.3586298     -0.01563421     0.0015621648  -483.49708     -490.54764     -93586.298      97.114795      96.890624      115.80627    
    140800   300.1433       0.1408         9.3735679     -0.02607813     0             -233.61608     -388.19181     -93735.679      97.170328      96.817304      115.81642    
    140900   299.07414      0.1409         9.3397458      0.0066976883   0.033822148    211.68392      291.16636     -93397.458      97.243588      96.687742      115.82657    
    141000   300.56145      0.141          9.3348693      0.010651715    0.03869863     376.70723      456.16917     -93348.693      97.266936      96.644141      115.83672    
    141100   300.19461      0.1411         9.3384537      0.0075228555   0.03511427     149.58761      264.94        -93384.537      97.248944      96.668957      115.84687    
    141200   298.69945      0.1412         9.3651094     -0.016906834    0.0084585389  -212.84156     -95.01037      -93651.094      97.21693       96.728611      115.85703    
    141300   301.68282      0.1413         9.3710701     -0.019616224    0.0024977785  -473.39867     -329.61689     -93710.701      97.141463      96.816777      115.86718    
    141400   299.20232      0.1414         9.3378864      0.013853017    0.03568157    -96.052308     -132.22904     -93378.864      97.020661      96.898627      115.87733    
    141500   300.37091      0.1415         9.3270982      0.023564095    0.046469775    54.114156     -15.846367     -93270.982      96.937196      96.952699      115.88748    
    141600   301.14208      0.1416         9.3173091      0.029064854    0.05625882     5.4061021      70.582674     -93173.091      96.858236      97.012025      115.89764    
    141700   299.39682      0.1417         9.2854921      0.053568117    0.088075856    178.8623       132.27081     -92854.921      96.769515      97.070289      115.90779    
    141800   300.80243      0.1418         9.2499702      0.076730187    0.12359769     157.71274      42.957847     -92499.702      96.670761      97.142146      115.91794    
    141900   299.98665      0.1419         9.199993       0.11273213     0.17357492     33.458664      40.902658     -91999.93       96.59583       97.18665       115.92809    
    142000   301.53121      0.142          9.16092        0.13441019     0.2126479     -116.48713     -50.657776     -91609.2        96.537034      97.215278      115.93824    
    142100   300.03572      0.1421         9.0752435      0.19376571     0.29832444     30.88173      -105.95794     -90752.435      96.473168      97.230962      115.9484     
    142200   302.57543      0.1422         8.9585725      0.26978299     0.4149954     -133.272       -74.057464     -89585.725      96.403212      97.22927       115.95855    
    142300   304.44654      0.1423         8.7973055      0.37367356     0.57626245     25.075266     -129.92129     -87973.055      96.347406      97.191456      115.9687     
  858236      97.012025      115.89764    
    141700   299.39682      0.1417         9.2854921      0.053568117    0.088075856    178.8623       132.27081     -92854.921      96.769515      97.070289      115.90779    
    141800   300.80243      0.1418         9.2499702      0.076730187    0.12359769     157.71274      42.957847     -92499.702      96.670761      97.142146      115.91794    
    141900   299.98665      0.1419         9.199993       0.11273213     0.17357492     33.458664      40.902658     -91999.93       96.59583       97.18665       115.92809    
    142000   301.53121      0.142          9.16092        0.13441019     0.2126479     -116.48713     -50.657776     -91609.2        96.537034      97.215278      115.93824    
    142100   300.03572      0.1421         9.0752435      0.19376571     0.29832444     30.88173      -105.95794     -90752.435      96.473168      97.230962      115.9484     
    142200   302.57543   946    
Loop time of 2300.08 on 1 procs for 142800 steps with 87808 atoms

Performance: 10.728 ns/day, 2.237 hours/ns, 62.085 timesteps/s, 5.452 Matom-step/s
99.9% CPU use with 1 MPI tasks x 1 OpenMP threads

MPI task timing breakdown:
Section |  min time  |  avg time  |  max time  |%varavg| %total
---------------------------------------------------------------
Pair    | 1338.7     | 1338.7     | 1338.7     |   0.0 | 58.20
Neigh   | 0.68264    | 0.68264    | 0.68264    |   0.0 |  0.03
Comm    | 47.36      | 47.36      | 47.36      |   0.0 |  2.06
Output  | 497.74     | 497.74     | 497.74     |   0.0 | 21.64
Modify  | 378.31     | 378.31     | 378.31     |   0.0 | 16.45
Other   |            | 37.24      |            |       |  1.62

Nlocal:          87808 ave       87808 max       87808 min
Histogram: 1 0 0 0 0 0 0 0 0 0
Nghost:          71292 ave       71292 max       71292 min
Histogram: 1 0 0 0 0 0 0 0 0 0
Neighs:              0 ave           0 max           0 min
Histogram: 1 0 0 0 0 0 0 0 0 0
FullNghs:  4.04157e+07 ave 4.04157e+07 max 4.04157e+07 min
Histogram: 1 0 0 0 0 0 0 0 0 0

Total # of neighbors = 40415661
Ave neighs/atom = 460.27311
Neighbor list builds = 365
Dangerous builds = 0


---------------------------------------------------------------------
      Device Time Info (average): 
---------------------------------------------------------------------
Data Transfer:   344.5983 s.
Neighbor copy:   0.0396 s.
Neighbor build:  1.2732 s.
Force calc:      881.0617 s.
Device Overhead: 2.1966 s.
CPU Neighbor:    0.4399 s.
CPU Cast/Pack:   120.1449 s.
CPU Driver_Time: 1.7384 s.
CPU Idle_Time:   1014.5116 s.
Average split:   1.0000.
Max Mem / Proc:  331.34 MB.
Prefetch mode:   None.
Vector width:    32.
Lanes / atom:    4.
Pair block:      256.
Neigh block:     128.
Neigh mode:      Hybrid (binning on host) with subgroup support.
Neigh sorting:   Unavailable or disabled.
---------------------------------------------------------------------

Total wall time: 0:38:53
   |       |  1.62

Nlocal:          87808 ave       87808 max       87808 min
Histogram: 1 0 0 0 0 0 0 0 0 0
Nghost:          71292 ave       71292 max       71292 min
Histogram: 1 0 0 0 0 0 0 0 0 0
Neighs:              0 ave           0 max           0 min
Histogram: 1 0 0 0 0 0 0 0 0 0
FullNghs:  4.04157e+07 ave 4.04157e+07 max 4.04157e+07 min
Histogram: 1 0 0 0 0 0 0 0 0 0

Total # of neighbors = 40415661
Ave neighs/atom = 460.27311
Neighbor list builds = 365
Dangerous builds = 0
Total wall time: 0:38:53
