(written by ASE)

768 atoms
1 atom types

0.0      23.136533880423833  xlo xhi
0.0      24.539999999999999  ylo yhi
0.0      23.136533880423833  zlo zhi

Atoms # atomic

     1   1      2.8920667350529796                       0 -7.4112753707321671e-17
     2   1      4.3381001025794692      2.0449999999999999      1.4460333675264896
     3   1                       0                       0                       0
     4   1      1.4460333675264898      2.0449999999999999      1.4460333675264898
     5   1 -7.4112753707321671e-17                       0      2.8920667350529796
     6   1      2.8920667350529796                       0      2.8920667350529796
     7   1      4.3381001025794692      2.0449999999999999      4.3381001025794692
     8   1      1.4460333675264896      2.0449999999999999      4.3381001025794692
     9   1      2.8920667350529792                       0      5.7841334701059592
    10   1      4.3381001025794692      2.0449999999999999      7.2301668376324484
    11   1 -1.4822550741464334e-16                       0      5.7841334701059592
    12   1      1.4460333675264896      2.0449999999999999      7.2301668376324484
    13   1 -2.9365619693370478e-19                       0      8.6762002051589384
    14   1      2.8920667350529792                       0      8.6762002051589384
    15   1      4.3381001025794692      2.0449999999999999      10.122233572685428
    16   1      1.4460333675264898      2.0449999999999999      10.122233572685428
    17   1      2.8920667350529796                       0      11.568266940211918
    18   1      4.3381001025794692      2.0449999999999999      13.014300307738408
    19   1 -2.9645101482928668e-16                       0      11.568266940211918
    20   1      1.4460333675264894      2.0449999999999999      13.014300307738408
    21   1  2.9557004623848557e-16                       0      14.460333675264897
    22   1      2.8920667350529792                       0      14.460333675264897
    23   1      4.3381001025794692      2.0449999999999999      15.906367042791388
    24   1        1.44603336752649      2.0449999999999999      15.906367042791386
    25   1      2.8920667350529796                       0      17.352400410317877
    26   1      4.3381001025794692      2.0449999999999999      18.798433777844366
    27   1 -5.8731239386740956e-19                       0      17.352400410317877
    28   1      1.4460333675264898      2.0449999999999999      18.798433777844366
    29   1  5.9143374867390484e-16                       0      20.244467145370855
    30   1      2.8920667350529796                       0      20.244467145370855
    31   1      4.3381001025794701      2.0449999999999999      21.690500512897348
    32   1      1.4460333675264903      2.0449999999999999      21.690500512897344
    33   1      2.8920667350529796      4.0899999999999999 -7.4112753707321671e-17
    34   1      4.3381001025794692      6.1349999999999998      1.4460333675264896
    35   1                       0      4.0899999999999999                       0
    36   1      1.4460333675264898      6.1349999999999998      1.4460333675264898
    37   1 -7.4112753707321671e-17      4.0899999999999999      2.8920667350529796
    38   1      2.8920667350529796      4.0899999999999999      2.8920667350529796
    39   1      4.3381001025794692      6.1349999999999998      4.3381001025794692
    40   1      1.4460333675264896      6.1349999999999998      4.3381001025794692
    41   1      2.8920667350529792      4.0899999999999999      5.7841334701059592
    42   1      4.3381001025794692      6.1349999999999998      7.2301668376324484
    43   1 -1.4822550741464334e-16      4.0899999999999999      5.7841334701059592
    44   1      1.4460333675264896      6.1349999999999998      7.2301668376324484
    45   1 -2.9365619693370478e-19      4.0899999999999999      8.6762002051589384
    46   1      2.8920667350529792      4.0899999999999999      8.6762002051589384
    47   1      4.3381001025794692      6.1349999999999998      10.122233572685428
    48   1      1.4460333675264898      6.1349999999999998      10.122233572685428
    49   1      2.8920667350529796      4.0899999999999999      11.568266940211918
    50   1      4.3381001025794692      6.1349999999999998      13.014300307738408
    51   1 -2.9645101482928668e-16      4.0899999999999999      11.568266940211918
    52   1      1.4460333675264894      6.1349999999999998      13.014300307738408
    53   1  2.9557004623848557e-16      4.0899999999999999      14.460333675264897
    54   1      2.8920667350529792      4.0899999999999999      14.460333675264897
    55   1      4.3381001025794692      6.1349999999999998      15.906367042791388
    56   1        1.44603336752649      6.1349999999999998      15.906367042791386
    57   1      2.8920667350529796      4.0899999999999999      17.352400410317877
    58   1      4.3381001025794692      6.1349999999999998      18.798433777844366
    59   1 -5.8731239386740956e-19      4.0899999999999999      17.352400410317877
    60   1      1.4460333675264898      6.1349999999999998      18.798433777844366
    61   1  5.9143374867390484e-16      4.0899999999999999      20.244467145370855
    62   1      2.8920667350529796      4.0899999999999999      20.244467145370855
    63   1      4.3381001025794701      6.1349999999999998      21.690500512897348
    64   1      1.4460333675264903      6.1349999999999998      21.690500512897344
    65   1      2.8920667350529796      8.1799999999999997 -7.4112753707321671e-17
    66   1      4.3381001025794692                  10.225      1.4460333675264896
    67   1                       0      8.1799999999999997                       0
    68   1      1.4460333675264898                  10.225      1.4460333675264898
    69   1 -7.4112753707321671e-17      8.1799999999999997      2.8920667350529796
    70   1      2.8920667350529796      8.1799999999999997      2.8920667350529796
    71   1      4.3381001025794692                  10.225      4.3381001025794692
    72   1      1.4460333675264896                  10.225      4.3381001025794692
    73   1      2.8920667350529792      8.1799999999999997      5.7841334701059592
    74   1      4.3381001025794692                  10.225      7.2301668376324484
    75   1 -1.4822550741464334e-16      8.1799999999999997      5.7841334701059592
    76   1      1.4460333675264896                  10.225      7.2301668376324484
    77   1 -2.9365619693370478e-19      8.1799999999999997      8.6762002051589384
    78   1      2.8920667350529792      8.1799999999999997      8.6762002051589384
    79   1      4.3381001025794692                  10.225      10.122233572685428
    80   1      1.4460333675264898                  10.225      10.122233572685428
    81   1      2.8920667350529796      8.1799999999999997      11.568266940211918
    82   1      4.3381001025794692                  10.225      13.014300307738408
    83   1 -2.9645101482928668e-16      8.1799999999999997      11.568266940211918
    84   1      1.4460333675264894                  10.225      13.014300307738408
    85   1  2.9557004623848557e-16      8.1799999999999997      14.460333675264897
    86   1      2.8920667350529792      8.1799999999999997      14.460333675264897
    87   1      4.3381001025794692                  10.225      15.906367042791388
    88   1        1.44603336752649                  10.225      15.906367042791386
    89   1      2.8920667350529796      8.1799999999999997      17.352400410317877
    90   1      4.3381001025794692                  10.225      18.798433777844366
    91   1 -5.8731239386740956e-19      8.1799999999999997      17.352400410317877
    92   1      1.4460333675264898                  10.225      18.798433777844366
    93   1  5.9143374867390484e-16      8.1799999999999997      20.244467145370855
    94   1      2.8920667350529796      8.1799999999999997      20.244467145370855
    95   1      4.3381001025794701                  10.225      21.690500512897348
    96   1      1.4460333675264903                  10.225      21.690500512897344
    97   1      2.8920667350529796                   12.27 -7.4112753707321671e-17
    98   1      4.3381001025794692                  14.315      1.4460333675264896
    99   1                       0                   12.27                       0
   100   1      1.4460333675264898                  14.315      1.4460333675264898
   101   1 -7.4112753707321671e-17                   12.27      2.8920667350529796
   102   1      2.8920667350529796                   12.27      2.8920667350529796
   103   1      4.3381001025794692                  14.315      4.3381001025794692
   104   1      1.4460333675264896                  14.315      4.3381001025794692
   105   1      2.8920667350529792                   12.27      5.7841334701059592
   106   1      4.3381001025794692                  14.315      7.2301668376324484
   107   1 -1.4822550741464334e-16                   12.27      5.7841334701059592
   108   1      1.4460333675264896                  14.315      7.2301668376324484
   109   1 -2.9365619693370478e-19                   12.27      8.6762002051589384
   110   1      2.8920667350529792                   12.27      8.6762002051589384
   111   1      4.3381001025794692                  14.315      10.122233572685428
   112   1      1.4460333675264898                  14.315      10.122233572685428
   113   1      2.8920667350529796                   12.27      11.568266940211918
   114   1      4.3381001025794692                  14.315      13.014300307738408
   115   1 -2.9645101482928668e-16                   12.27      11.568266940211918
   116   1      1.4460333675264894                  14.315      13.014300307738408
   117   1  2.9557004623848557e-16                   12.27      14.460333675264897
   118   1      2.8920667350529792                   12.27      14.460333675264897
   119   1      4.3381001025794692                  14.315      15.906367042791388
   120   1        1.44603336752649                  14.315      15.906367042791386
   121   1      2.8920667350529796                   12.27      17.352400410317877
   122   1      4.3381001025794692                  14.315      18.798433777844366
   123   1 -5.8731239386740956e-19                   12.27      17.352400410317877
   124   1      1.4460333675264898                  14.315      18.798433777844366
   125   1  5.9143374867390484e-16                   12.27      20.244467145370855
   126   1      2.8920667350529796                   12.27      20.244467145370855
   127   1      4.3381001025794701                  14.315      21.690500512897348
   128   1      1.4460333675264903                  14.315      21.690500512897344
   129   1      2.8920667350529796      16.359999999999999 -7.4112753707321671e-17
   130   1      4.3381001025794692      18.405000000000001      1.4460333675264896
   131   1                       0      16.359999999999999                       0
   132   1      1.4460333675264898      18.405000000000001      1.4460333675264898
   133   1 -7.4112753707321671e-17      16.359999999999999      2.8920667350529796
   134   1      2.8920667350529796      16.359999999999999      2.8920667350529796
   135   1      4.3381001025794692      18.405000000000001      4.3381001025794692
   136   1      1.4460333675264896      18.405000000000001      4.3381001025794692
   137   1      2.8920667350529792      16.359999999999999      5.7841334701059592
   138   1      4.3381001025794692      18.405000000000001      7.2301668376324484
   139   1 -1.4822550741464334e-16      16.359999999999999      5.7841334701059592
   140   1      1.4460333675264896      18.405000000000001      7.2301668376324484
   141   1 -2.9365619693370478e-19      16.359999999999999      8.6762002051589384
   142   1      2.8920667350529792      16.359999999999999      8.6762002051589384
   143   1      4.3381001025794692      18.405000000000001      10.122233572685428
   144   1      1.4460333675264898      18.405000000000001      10.122233572685428
   145   1      2.8920667350529796      16.359999999999999      11.568266940211918
   146   1      4.3381001025794692      18.405000000000001      13.014300307738408
   147   1 -2.9645101482928668e-16      16.359999999999999      11.568266940211918
   148   1      1.4460333675264894      18.405000000000001      13.014300307738408
   149   1  2.9557004623848557e-16      16.359999999999999      14.460333675264897
   150   1      2.8920667350529792      16.359999999999999      14.460333675264897
   151   1      4.3381001025794692      18.405000000000001      15.906367042791388
   152   1        1.44603336752649      18.405000000000001      15.906367042791386
   153   1      2.8920667350529796      16.359999999999999      17.352400410317877
   154   1      4.3381001025794692      18.405000000000001      18.798433777844366
   155   1 -5.8731239386740956e-19      16.359999999999999      17.352400410317877
   156   1      1.4460333675264898      18.405000000000001      18.798433777844366
   157   1  5.9143374867390484e-16      16.359999999999999      20.244467145370855
   158   1      2.8920667350529796      16.359999999999999      20.244467145370855
   159   1      4.3381001025794701      18.405000000000001      21.690500512897348
   160   1      1.4460333675264903      18.405000000000001      21.690500512897344
   161   1      2.8920667350529796      20.449999999999999 -7.4112753707321671e-17
   162   1      4.3381001025794692      22.494999999999997      1.4460333675264896
   163   1                       0      20.449999999999999                       0
   164   1      1.4460333675264898      22.494999999999997      1.4460333675264898
   165   1 -7.4112753707321671e-17      20.449999999999999      2.8920667350529796
   166   1      2.8920667350529796      20.449999999999999      2.8920667350529796
   167   1      4.3381001025794692      22.494999999999997      4.3381001025794692
   168   1      1.4460333675264896      22.494999999999997      4.3381001025794692
   169   1      2.8920667350529792      20.449999999999999      5.7841334701059592
   170   1      4.3381001025794692      22.494999999999997      7.2301668376324484
   171   1 -1.4822550741464334e-16      20.449999999999999      5.7841334701059592
   172   1      1.4460333675264896      22.494999999999997      7.2301668376324484
   173   1 -2.9365619693370478e-19      20.449999999999999      8.6762002051589384
   174   1      2.8920667350529792      20.449999999999999      8.6762002051589384
   175   1      4.3381001025794692      22.494999999999997      10.122233572685428
   176   1      1.4460333675264898      22.494999999999997      10.122233572685428
   177   1      2.8920667350529796      20.449999999999999      11.568266940211918
   178   1      4.3381001025794692      22.494999999999997      13.014300307738408
   179   1 -2.9645101482928668e-16      20.449999999999999      11.568266940211918
   180   1      1.4460333675264894      22.494999999999997      13.014300307738408
   181   1  2.9557004623848557e-16      20.449999999999999      14.460333675264897
   182   1      2.8920667350529792      20.449999999999999      14.460333675264897
   183   1      4.3381001025794692      22.494999999999997      15.906367042791388
   184   1        1.44603336752649      22.494999999999997      15.906367042791386
   185   1      2.8920667350529796      20.449999999999999      17.352400410317877
   186   1      4.3381001025794692      22.494999999999997      18.798433777844366
   187   1 -5.8731239386740956e-19      20.449999999999999      17.352400410317877
   188   1      1.4460333675264898      22.494999999999997      18.798433777844366
   189   1  5.9143374867390484e-16      20.449999999999999      20.244467145370855
   190   1      2.8920667350529796      20.449999999999999      20.244467145370855
   191   1      4.3381001025794701      22.494999999999997      21.690500512897348
   192   1      1.4460333675264903      22.494999999999997      21.690500512897344
   193   1      8.6762002051589384                       0 -2.9365619693370478e-19
   194   1      10.122233572685428      2.0449999999999999      1.4460333675264898
   195   1      5.7841334701059592                       0 -1.4822550741464334e-16
   196   1      7.2301668376324484      2.0449999999999999      1.4460333675264896
   197   1      5.7841334701059592                       0      2.8920667350529792
   198   1      8.6762002051589384                       0      2.8920667350529792
   199   1      10.122233572685428      2.0449999999999999      4.3381001025794692
   200   1      7.2301668376324484      2.0449999999999999      4.3381001025794692
   201   1      8.6762002051589384                       0      5.7841334701059592
   202   1      10.122233572685428      2.0449999999999999      7.2301668376324484
   203   1      5.7841334701059592                       0      5.7841334701059592
   204   1      7.2301668376324484      2.0449999999999999      7.2301668376324484
   205   1      5.7841334701059592                       0      8.6762002051589384
   206   1      8.6762002051589384                       0      8.6762002051589384
   207   1      10.122233572685428      2.0449999999999999      10.122233572685428
   208   1      7.2301668376324484      2.0449999999999999      10.122233572685428
   209   1      8.6762002051589384                       0      11.568266940211918
   210   1      10.122233572685428      2.0449999999999999      13.014300307738408
   211   1      5.7841334701059584                       0      11.568266940211918
   212   1      7.2301668376324484      2.0449999999999999      13.014300307738408
   213   1      5.7841334701059592                       0      14.460333675264897
   214   1      8.6762002051589384                       0      14.460333675264897
   215   1      10.122233572685429      2.0449999999999999      15.906367042791388
   216   1      7.2301668376324484      2.0449999999999999      15.906367042791388
   217   1      8.6762002051589402                       0      17.352400410317877
   218   1      10.122233572685428      2.0449999999999999      18.798433777844366
   219   1      5.7841334701059584                       0      17.352400410317877
   220   1      7.2301668376324493      2.0449999999999999       18.79843377784437
   221   1      5.7841334701059601                       0      20.244467145370859
   222   1      8.6762002051589384                       0      20.244467145370855
   223   1      10.122233572685426      2.0449999999999999      21.690500512897344
   224   1      7.2301668376324493      2.0449999999999999      21.690500512897344
   225   1      8.6762002051589384      4.0899999999999999 -2.9365619693370478e-19
   226   1      10.122233572685428      6.1349999999999998      1.4460333675264898
   227   1      5.7841334701059592      4.0899999999999999 -1.4822550741464334e-16
   228   1      7.2301668376324484      6.1349999999999998      1.4460333675264896
   229   1      5.7841334701059592      4.0899999999999999      2.8920667350529792
   230   1      8.6762002051589384      4.0899999999999999      2.8920667350529792
   231   1      10.122233572685428      6.1349999999999998      4.3381001025794692
   232   1      7.2301668376324484      6.1349999999999998      4.3381001025794692
   233   1      8.6762002051589384      4.0899999999999999      5.7841334701059592
   234   1      10.122233572685428      6.1349999999999998      7.2301668376324484
   235   1      5.7841334701059592      4.0899999999999999      5.7841334701059592
   236   1      7.2301668376324484      6.1349999999999998      7.2301668376324484
   237   1      5.7841334701059592      4.0899999999999999      8.6762002051589384
   238   1      8.6762002051589384      4.0899999999999999      8.6762002051589384
   239   1      10.122233572685428      6.1349999999999998      10.122233572685428
   240   1      7.2301668376324484      6.1349999999999998      10.122233572685428
   241   1      8.6762002051589384      4.0899999999999999      11.568266940211918
   242   1      10.122233572685428      6.1349999999999998      13.014300307738408
   243   1      5.7841334701059584      4.0899999999999999      11.568266940211918
   244   1      7.2301668376324484      6.1349999999999998      13.014300307738408
   245   1      5.7841334701059592      4.0899999999999999      14.460333675264897
   246   1      8.6762002051589384      4.0899999999999999      14.460333675264897
   247   1      10.122233572685429      6.1349999999999998      15.906367042791388
   248   1      7.2301668376324484      6.1349999999999998      15.906367042791388
   249   1      8.6762002051589402      4.0899999999999999      17.352400410317877
   250   1      10.122233572685428      6.1349999999999998      18.798433777844366
   251   1      5.7841334701059584      4.0899999999999999      17.352400410317877
   252   1      7.2301668376324493      6.1349999999999998       18.79843377784437
   253   1      5.7841334701059601      4.0899999999999999      20.244467145370859
   254   1      8.6762002051589384      4.0899999999999999      20.244467145370855
   255   1      10.122233572685426      6.1349999999999998      21.690500512897344
   256   1      7.2301668376324493      6.1349999999999998      21.690500512897344
   257   1      8.6762002051589384      8.1799999999999997 -2.9365619693370478e-19
   258   1      10.122233572685428                  10.225      1.4460333675264898
   259   1      5.7841334701059592      8.1799999999999997 -1.4822550741464334e-16
   260   1      7.2301668376324484                  10.225      1.4460333675264896
   261   1      5.7841334701059592      8.1799999999999997      2.8920667350529792
   262   1      8.6762002051589384      8.1799999999999997      2.8920667350529792
   263   1      10.122233572685428                  10.225      4.3381001025794692
   264   1      7.2301668376324484                  10.225      4.3381001025794692
   265   1      8.6762002051589384      8.1799999999999997      5.7841334701059592
   266   1      10.122233572685428                  10.225      7.2301668376324484
   267   1      5.7841334701059592      8.1799999999999997      5.7841334701059592
   268   1      7.2301668376324484                  10.225      7.2301668376324484
   269   1      5.7841334701059592      8.1799999999999997      8.6762002051589384
   270   1      8.6762002051589384      8.1799999999999997      8.6762002051589384
   271   1      10.122233572685428                  10.225      10.122233572685428
   272   1      7.2301668376324484                  10.225      10.122233572685428
   273   1      8.6762002051589384      8.1799999999999997      11.568266940211918
   274   1      10.122233572685428                  10.225      13.014300307738408
   275   1      5.7841334701059584      8.1799999999999997      11.568266940211918
   276   1      7.2301668376324484                  10.225      13.014300307738408
   277   1      5.7841334701059592      8.1799999999999997      14.460333675264897
   278   1      8.6762002051589384      8.1799999999999997      14.460333675264897
   279   1      10.122233572685429                  10.225      15.906367042791388
   280   1      7.2301668376324484                  10.225      15.906367042791388
   281   1      8.6762002051589402      8.1799999999999997      17.352400410317877
   282   1      10.122233572685428                  10.225      18.798433777844366
   283   1      5.7841334701059584      8.1799999999999997      17.352400410317877
   284   1      7.2301668376324493                  10.225       18.79843377784437
   285   1      5.7841334701059601      8.1799999999999997      20.244467145370859
   286   1      8.6762002051589384      8.1799999999999997      20.244467145370855
   287   1      10.122233572685426                  10.225      21.690500512897344
   288   1      7.2301668376324493                  10.225      21.690500512897344
   289   1      8.6762002051589384                   12.27 -2.9365619693370478e-19
   290   1      10.122233572685428                  14.315      1.4460333675264898
   291   1      5.7841334701059592                   12.27 -1.4822550741464334e-16
   292   1      7.2301668376324484                  14.315      1.4460333675264896
   293   1      5.7841334701059592                   12.27      2.8920667350529792
   294   1      8.6762002051589384                   12.27      2.8920667350529792
   295   1      10.122233572685428                  14.315      4.3381001025794692
   296   1      7.2301668376324484                  14.315      4.3381001025794692
   297   1      8.6762002051589384                   12.27      5.7841334701059592
   298   1      10.122233572685428                  14.315      7.2301668376324484
   299   1      5.7841334701059592                   12.27      5.7841334701059592
   300   1      7.2301668376324484                  14.315      7.2301668376324484
   301   1      5.7841334701059592                   12.27      8.6762002051589384
   302   1      8.6762002051589384                   12.27      8.6762002051589384
   303   1      10.122233572685428                  14.315      10.122233572685428
   304   1      7.2301668376324484                  14.315      10.122233572685428
   305   1      8.6762002051589384                   12.27      11.568266940211918
   306   1      10.122233572685428                  14.315      13.014300307738408
   307   1      5.7841334701059584                   12.27      11.568266940211918
   308   1      7.2301668376324484                  14.315      13.014300307738408
   309   1      5.7841334701059592                   12.27      14.460333675264897
   310   1      8.6762002051589384                   12.27      14.460333675264897
   311   1      10.122233572685429                  14.315      15.906367042791388
   312   1      7.2301668376324484                  14.315      15.906367042791388
   313   1      8.6762002051589402                   12.27      17.352400410317877
   314   1      10.122233572685428                  14.315      18.798433777844366
   315   1      5.7841334701059584                   12.27      17.352400410317877
   316   1      7.2301668376324493                  14.315       18.79843377784437
   317   1      5.7841334701059601                   12.27      20.244467145370859
   318   1      8.6762002051589384                   12.27      20.244467145370855
   319   1      10.122233572685426                  14.315      21.690500512897344
   320   1      7.2301668376324493                  14.315      21.690500512897344
   321   1      8.6762002051589384      16.359999999999999 -2.9365619693370478e-19
   322   1      10.122233572685428      18.405000000000001      1.4460333675264898
   323   1      5.7841334701059592      16.359999999999999 -1.4822550741464334e-16
   324   1      7.2301668376324484      18.405000000000001      1.4460333675264896
   325   1      5.7841334701059592      16.359999999999999      2.8920667350529792
   326   1      8.6762002051589384      16.359999999999999      2.8920667350529792
   327   1      10.122233572685428      18.405000000000001      4.3381001025794692
   328   1      7.2301668376324484      18.405000000000001      4.3381001025794692
   329   1      8.6762002051589384      16.359999999999999      5.7841334701059592
   330   1      10.122233572685428      18.405000000000001      7.2301668376324484
   331   1      5.7841334701059592      16.359999999999999      5.7841334701059592
   332   1      7.2301668376324484      18.405000000000001      7.2301668376324484
   333   1      5.7841334701059592      16.359999999999999      8.6762002051589384
   334   1      8.6762002051589384      16.359999999999999      8.6762002051589384
   335   1      10.122233572685428      18.405000000000001      10.122233572685428
   336   1      7.2301668376324484      18.405000000000001      10.122233572685428
   337   1      8.6762002051589384      16.359999999999999      11.568266940211918
   338   1      10.122233572685428      18.405000000000001      13.014300307738408
   339   1      5.7841334701059584      16.359999999999999      11.568266940211918
   340   1      7.2301668376324484      18.405000000000001      13.014300307738408
   341   1      5.7841334701059592      16.359999999999999      14.460333675264897
   342   1      8.6762002051589384      16.359999999999999      14.460333675264897
   343   1      10.122233572685429      18.405000000000001      15.906367042791388
   344   1      7.2301668376324484      18.405000000000001      15.906367042791388
   345   1      8.6762002051589402      16.359999999999999      17.352400410317877
   346   1      10.122233572685428      18.405000000000001      18.798433777844366
   347   1      5.7841334701059584      16.359999999999999      17.352400410317877
   348   1      7.2301668376324493      18.405000000000001       18.79843377784437
   349   1      5.7841334701059601      16.359999999999999      20.244467145370859
   350   1      8.6762002051589384      16.359999999999999      20.244467145370855
   351   1      10.122233572685426      18.405000000000001      21.690500512897344
   352   1      7.2301668376324493      18.405000000000001      21.690500512897344
   353   1      8.6762002051589384      20.449999999999999 -2.9365619693370478e-19
   354   1      10.122233572685428      22.494999999999997      1.4460333675264898
   355   1      5.7841334701059592      20.449999999999999 -1.4822550741464334e-16
   356   1      7.2301668376324484      22.494999999999997      1.4460333675264896
   357   1      5.7841334701059592      20.449999999999999      2.8920667350529792
   358   1      8.6762002051589384      20.449999999999999      2.8920667350529792
   359   1      10.122233572685428      22.494999999999997      4.3381001025794692