(written by ASE)

576 atoms
1 atom types

0.0       23.06865162942993  xlo xhi
0.0      19.978038342139602  ylo yhi
0.0      21.189909579797646  zlo zhi

Atoms # atomic

     1   1      2.8835814536787407   2.391178842835592e-17  2.1262596885752815e-17
     2   1      1.4417907268393704      2.4972547927674498  2.7765762173689471e-16
     3   1 -3.1798466322984666e-16      4.9945095855349004  4.8661440362156825e-16
     4   1                       0                       0                       0
     5   1 -3.1798466322984666e-16      1.6648365285116338      2.3544343977552948
     6   1      4.3253721805181113      2.4972547927674498  2.7765762173689471e-16
     7   1      1.4417907268393702      7.4917643783023511  2.9437370731147862e-17
     8   1      4.3253721805181113      7.4917643783023511  2.9437370731147862e-17
     9   1      2.8835814536787407      4.9945095855349004  4.2525193771505631e-17
    10   1      1.4417907268393702      4.1620913212790835      2.3544343977552948
    11   1      4.3253721805181113      4.1620913212790835      2.3544343977552948
    12   1      2.8835814536787407      6.6593461140465342      2.3544343977552953
    13   1      2.8835814536787407      1.6648365285116336      2.3544343977552944
    14   1      1.4417907268393702     0.83241826425581755      4.7088687955105888
    15   1      4.3253721805181113     0.83241826425581711      4.7088687955105888
    16   1      2.8835814536787407      3.3296730570232671      4.7088687955105897
    17   1      1.4417907268393706      9.1566009068139849      2.3544343977552944
    18   1 -7.9323429861833427e-18      6.6593461140465342      2.3544343977552944
    19   1      1.4417907268393706      5.8269278497907164      4.7088687955105897
    20   1  5.2416458218251128e-16      8.3241826425581671      4.7088687955105888
    21   1 -7.9323429861833427e-18      3.3296730570232671      4.7088687955105888
    22   1      4.3253721805181105      9.1566009068139849      2.3544343977552944
    23   1      4.3253721805181105      5.8269278497907173      4.7088687955105897
    24   1      2.8835814536787407      8.3241826425581671      4.7088687955105888
    25   1      2.8835814536787407  9.5647153713423681e-17      7.0633031932658827
    26   1      1.4417907268393706      2.4972547927674498      7.0633031932658836
    27   1 -1.0387240129099869e-16      4.9945095855349004      7.0633031932658836
    28   1 -7.9323429861833427e-18  9.5647153713423681e-17      7.0633031932658827
    29   1 -1.0387240129099869e-16      1.6648365285116333      9.4177375910211776
    30   1      4.3253721805181113      2.4972547927674498      7.0633031932658836
    31   1      1.4417907268393702      7.4917643783023511      7.0633031932658827
    32   1      4.3253721805181105      7.4917643783023511      7.0633031932658827
    33   1      2.8835814536787407      4.9945095855349004      7.0633031932658827
    34   1      1.4417907268393702      4.1620913212790835      9.4177375910211776
    35   1      4.3253721805181105      4.1620913212790835      9.4177375910211776
    36   1      2.8835814536787403      6.6593461140465342      9.4177375910211776
    37   1      2.8835814536787407      1.6648365285116333      9.4177375910211776
    38   1      1.4417907268393702     0.83241826425581722      11.772171988776471
    39   1      4.3253721805181105     0.83241826425581722      11.772171988776471
    40   1      2.8835814536787403      3.3296730570232671      11.772171988776472
    41   1      1.4417907268393702      9.1566009068139849      9.4177375910211758
    42   1 -1.5864685972366685e-17      6.6593461140465342      9.4177375910211776
    43   1      1.4417907268393702      5.8269278497907164      11.772171988776471
    44   1  7.2143029346265319e-17      8.3241826425581671      11.772171988776471
    45   1 -1.5864685972366685e-17      3.3296730570232671      11.772171988776472
    46   1      4.3253721805181113      9.1566009068139849      9.4177375910211776
    47   1      4.3253721805181113      5.8269278497907173      11.772171988776472
    48   1      2.8835814536787412      8.3241826425581671      11.772171988776472
    49   1      2.8835814536787403  1.9129430742684736e-16      14.126606386531765
    50   1      1.4417907268393702      2.4972547927674493      14.126606386531765
    51   1  7.2143029346265319e-17      4.9945095855349004      14.126606386531765
    52   1 -1.5864685972366685e-17  1.9129430742684736e-16      14.126606386531765
    53   1  7.2143029346265319e-17      1.6648365285116331       16.48104078428706
    54   1      4.3253721805181113      2.4972547927674502      14.126606386531767
    55   1       1.441790726839371       7.491764378302352      14.126606386531767
    56   1      4.3253721805181113       7.491764378302352      14.126606386531765
    57   1      2.8835814536787412      4.9945095855349004      14.126606386531767
    58   1       1.441790726839371      4.1620913212790844       16.48104078428706
    59   1      4.3253721805181113      4.1620913212790844       16.48104078428706
    60   1      2.8835814536787412      6.6593461140465342       16.48104078428706
    61   1      2.8835814536787412      1.6648365285116331       16.48104078428706
    62   1       1.441790726839371     0.83241826425581766      18.835475182042355
    63   1      4.3253721805181113     0.83241826425581766      18.835475182042355
    64   1      2.8835814536787412      3.3296730570232667      18.835475182042355
    65   1      1.4417907268393699      9.1566009068139849       16.48104078428706
    66   1 -2.0774480258199738e-16      6.6593461140465342       16.48104078428706
    67   1      1.4417907268393699      5.8269278497907182      18.835475182042355
    68   1  1.1363368796836546e-15      8.3241826425581671      18.835475182042355
    69   1 -2.0774480258199738e-16      3.3296730570232667      18.835475182042355
    70   1      4.3253721805181113      9.1566009068139849       16.48104078428706
    71   1      4.3253721805181113      5.8269278497907182      18.835475182042355
    72   1      2.8835814536787403      8.3241826425581671      18.835475182042355
    73   1      2.8835814536787407      9.9890191710698009  8.5050387543011261e-17
    74   1      1.4417907268393706      12.486273963837251  5.8475261420493728e-16
    75   1 -1.0387240129099869e-16      14.983528756604702  5.8874741462295725e-17
    76   1 -7.9323429861833427e-18      9.9890191710698009  8.5050387543011261e-17
    77   1 -1.0387240129099869e-16      11.653855699581435      2.3544343977552948
    78   1      4.3253721805181113      12.486273963837251  5.8475261420493728e-16
    79   1      1.4417907268393702      17.480783549372152 -3.2960145157590349e-16
    80   1      4.3253721805181105      17.480783549372152 -3.2960145157590349e-16
    81   1      2.8835814536787407      14.983528756604702 -8.2930367823782951e-16
    82   1      1.4417907268393702      14.151110492348884      2.3544343977552944
    83   1      4.3253721805181105      14.151110492348884      2.3544343977552944
    84   1      2.8835814536787403      16.648365285116334       2.354434397755294
    85   1      2.8835814536787407      11.653855699581435       2.354434397755294
    86   1      1.4417907268393702      10.821437435325619      4.7088687955105888
    87   1      4.3253721805181105      10.821437435325619      4.7088687955105888
    88   1      2.8835814536787403      13.318692228093068      4.7088687955105888
    89   1      1.4417907268393702      19.145620077883784      2.3544343977552926
    90   1 -1.5864685972366685e-17      16.648365285116334       2.354434397755294
    91   1      1.4417907268393702      15.815947020860518      4.7088687955105879
    92   1  7.2143029346265319e-17       18.31320181362797       4.708868795510587
    93   1 -1.5864685972366685e-17      13.318692228093068      4.7088687955105888
    94   1      4.3253721805181113      19.145620077883788      2.3544343977552944
    95   1      4.3253721805181113      15.815947020860518      4.7088687955105897
    96   1      2.8835814536787412       18.31320181362797      4.7088687955105888
    97   1      2.8835814536787403      9.9890191710698009      7.0633031932658836
    98   1      1.4417907268393702      12.486273963837251      7.0633031932658819
    99   1  7.2143029346265319e-17        14.9835287566047      7.0633031932658819
   100   1 -1.5864685972366685e-17      9.9890191710698009      7.0633031932658836
   101   1  7.2143029346265319e-17      11.653855699581435      9.4177375910211758
   102   1      4.3253721805181113      12.486273963837251      7.0633031932658836
   103   1       1.441790726839371      17.480783549372152      7.0633031932658845
   104   1      4.3253721805181113      17.480783549372152      7.0633031932658827
   105   1      2.8835814536787412        14.9835287566047      7.0633031932658836
   106   1       1.441790726839371      14.151110492348884      9.4177375910211794
   107   1      4.3253721805181113      14.151110492348884      9.4177375910211776
   108   1      2.8835814536787412      16.648365285116334      9.4177375910211776
   109   1      2.8835814536787412      11.653855699581435      9.4177375910211776
   110   1       1.441790726839371      10.821437435325619      11.772171988776472
   111   1      4.3253721805181113      10.821437435325619      11.772171988776471
   112   1      2.8835814536787412      13.318692228093068      11.772171988776471
   113   1      1.4417907268393699      19.145620077883788      9.4177375910211776
   114   1 -2.0774480258199738e-16      16.648365285116334      9.4177375910211794
   115   1      1.4417907268393699      15.815947020860518      11.772171988776472
   116   1  1.1363368796836546e-15       18.31320181362797      11.772171988776472
   117   1 -2.0774480258199738e-16      13.318692228093068      11.772171988776472
   118   1      4.3253721805181113      19.145620077883788      9.4177375910211776
   119   1      4.3253721805181113      15.815947020860518      11.772171988776472
   120   1      2.8835814536787403       18.31320181362797      11.772171988776472
   121   1      2.8835814536787399      9.9890191710698009      14.126606386531767
   122   1      1.4417907268393699      12.486273963837252      14.126606386531765
   123   1 -1.3758110542103853e-15      14.983528756604702      14.126606386531765
   124   1 -2.0774480258199738e-16      9.9890191710698009      14.126606386531767
   125   1 -1.3758110542103853e-15      11.653855699581435       16.48104078428706
   126   1      4.3253721805181105      12.486273963837252      14.126606386531767
   127   1      1.4417907268393688      17.480783549372152      14.126606386531767
   128   1      4.3253721805181122      17.480783549372152      14.126606386531767
   129   1      2.8835814536787403      14.983528756604702      14.126606386531765
   130   1      1.4417907268393688      14.151110492348886      16.481040784287064
   131   1      4.3253721805181122      14.151110492348886      16.481040784287064
   132   1      2.8835814536787407      16.648365285116334       16.48104078428706
   133   1      2.8835814536787403      11.653855699581435       16.48104078428706
   134   1      1.4417907268393688      10.821437435325619      18.835475182042355
   135   1      4.3253721805181122      10.821437435325619      18.835475182042355
   136   1      2.8835814536787407      13.318692228093068      18.835475182042355
   137   1      1.4417907268393719      19.145620077883784       16.48104078428706
   138   1 -3.1729371944733371e-17      16.648365285116334       16.48104078428706
   139   1      1.4417907268393719      15.815947020860518      18.835475182042355
   140   1  5.7656121582712916e-16       18.31320181362797      18.835475182042355
   141   1 -3.1729371944733371e-17      13.318692228093068      18.835475182042355
   142   1      4.3253721805181087      19.145620077883784       16.48104078428706
   143   1      4.3253721805181087      15.815947020860518      18.835475182042355
   144   1      2.8835814536787403      18.313201813627966      18.835475182042352
   145   1      8.6507443610362227 -2.2058559791218367e-16  2.9437370731147862e-17
   146   1      7.2089536341968525      2.4972547927674498  4.9970222666192601e-16
   147   1      5.7671629073574815      4.9945095855349004  4.8661440362156825e-16
   148   1      5.7671629073574815  4.7823576856711841e-17  4.2525193771505631e-17
   149   1      5.7671629073574815      1.6648365285116336      2.3544343977552948
   150   1      10.092535087875593      2.4972547927674498  5.5613016811863399e-17
   151   1      7.2089536341968516      7.4917643783023511  2.9437370731147862e-17
   152   1      10.092535087875593      7.4917643783023511 -8.5874104896897737e-16
   153   1      8.6507443610362227      4.9945095855349004  4.2525193771505631e-17
   154   1      7.2089536341968516      4.1620913212790835      2.3544343977552948
   155   1      10.092535087875593      4.1620913212790835       2.354434397755294
   156   1      8.6507443610362209      6.6593461140465342      2.3544343977552944
   157   1      8.6507443610362227      1.6648365285116336      2.3544343977552944
   158   1      7.2089536341968516     0.83241826425581755      4.7088687955105888
   159   1      10.092535087875593     0.83241826425581711      4.7088687955105879
   160   1      8.6507443610362209      3.3296730570232671      4.7088687955105888
   161   1      7.2089536341968516      9.1566009068139849      2.3544343977552935
   162   1      5.7671629073574815      6.6593461140465342      2.3544343977552944
   163   1      7.2089536341968516      5.8269278497907164      4.7088687955105888
   164   1      5.7671629073574815      8.3241826425581671      4.7088687955105879
   165   1      5.7671629073574815      3.3296730570232671      4.7088687955105888
   166   1      10.092535087875593      9.1566009068139849      2.3544343977552953
   167   1      10.092535087875593      5.8269278497907164      4.7088687955105906
   168   1      8.6507443610362227      8.3241826425581671      4.7088687955105897
   169   1      8.6507443610362227 -3.4844205613663894e-16      7.0633031932658819
   170   1      7.2089536341968516      2.4972547927674498      7.0633031932658827
   171   1      5.7671629073574806      4.9945095855349004      7.0633031932658827
   172   1      5.7671629073574815  9.5647153713423681e-17      7.0633031932658827
   173   1      5.7671629073574806      1.6648365285116333      9.4177375910211776
   174   1      10.092535087875593      2.4972547927674498      7.0633031932658836
   175   1      7.2089536341968516      7.4917643783023511      7.0633031932658845
   176   1      10.092535087875593      7.4917643783023511      7.0633031932658827
   177   1      8.6507443610362227      4.9945095855349004      7.0633031932658836
   178   1      7.2089536341968516      4.1620913212790835      9.4177375910211794
   179   1      10.092535087875593      4.1620913212790835      9.4177375910211776
   180   1      8.6507443610362227      6.6593461140465342      9.4177375910211776
   181   1      8.6507443610362227      1.6648365285116333      9.4177375910211776
   182   1      7.2089536341968516     0.83241826425581722      11.772171988776472
   183   1      10.092535087875593     0.83241826425581722      11.772171988776471
   184   1      8.6507443610362227      3.3296730570232671      11.772171988776472
   185   1      7.2089536341968516      9.1566009068139849      9.4177375910211776
   186   1      5.7671629073574815      6.6593461140465342      9.4177375910211776
   187   1      7.2089536341968516      5.8269278497907173      11.772171988776472
   188   1      5.7671629073574824      8.3241826425581671      11.772171988776471
   189   1      5.7671629073574815      3.3296730570232671      11.772171988776472
   190   1      10.092535087875593      9.1566009068139849      9.4177375910211776
   191   1      10.092535087875593      5.8269278497907173      11.772171988776472
   192   1      8.6507443610362227      8.3241826425581671      11.772171988776472
   193   1      8.6507443610362227  1.9129430742684736e-16      14.126606386531765
   194   1      7.2089536341968516      2.4972547927674502      14.126606386531767
   195   1      5.7671629073574815      4.9945095855349004      14.126606386531767
   196   1      5.7671629073574815  1.9129430742684736e-16      14.126606386531765
   197   1      5.7671629073574815      1.6648365285116331       16.48104078428706
   198   1      10.092535087875593      2.4972547927674502      14.126606386531767
   199   1      7.2089536341968516       7.491764378302352      14.126606386531767
   200   1      10.092535087875595       7.491764378302352      14.126606386531767
   201   1      8.6507443610362227      4.9945095855349004      14.126606386531767
   202   1      7.2089536341968516      4.1620913212790844       16.48104078428706
   203   1      10.092535087875595      4.1620913212790844       16.48104078428706
   204   1      8.6507443610362227      6.6593461140465342       16.48104078428706
   205   1      8.6507443610362227      1.6648365285116331       16.48104078428706
   206   1      7.2089536341968516     0.83241826425581766      18.835475182042355
   207   1      10.092535087875595     0.83241826425581766      18.835475182042355
   208   1      8.6507443610362227      3.3296730570232667      18.835475182042355
   209   1      7.2089536341968534      9.1566009068139849       16.48104078428706
   210   1      5.7671629073574815      6.6593461140465342       16.48104078428706
   211   1      7.2089536341968534      5.8269278497907182      18.835475182042355
   212   1      5.7671629073574833      8.3241826425581671      18.835475182042355
   213   1      5.7671629073574815      3.3296730570232667      18.835475182042355
   214   1      10.092535087875591      9.1566009068139831       16.48104078428706
   215   1      10.092535087875591      5.8269278497907164      18.835475182042355
   216   1      8.6507443610362209      8.3241826425581671      18.835475182042355
   217   1      8.6507443610362227      9.9890191710698009 -8.0312803215711397e-16
   218   1      7.2089536341968516      12.486273963837251 -3.0342580549518796e-16
   219   1      5.7671629073574806      14.983528756604702 -8.2930367823782951e-16
   220   1      5.7671629073574815      9.9890191710698009  8.5050387543011261e-17
   221   1      5.7671629073574806      11.653855699581435       2.354434397755294
   222   1      10.092535087875593      12.486273963837251  5.8475261420493728e-16
   223   1      7.2089536341968516      17.480783549372152   1.446755387824347e-15
   224   1      10.092535087875593      17.480783549372152 -3.2960145157590349e-16
   225   1      8.6507443610362227      14.983528756604702  5.8874741462295725e-17
   226   1      7.2089536341968516      14.151110492348884      2.3544343977552962
   227   1      10.092535087875593      14.151110492348884      2.3544343977552944
   228   1      8.6507443610362227      16.648365285116334       2.354434397755294
   229   1      8.6507443610362227      11.653855699581435      2.3544343977552948
   230   1      7.2089536341968516      10.821437435325619      4.7088687955105906
   231   1      10.092535087875593      10.821437435325619      4.7088687955105888
   232   1      8.6507443610362227      13.318692228093068      4.7088687955105888
   233   1      7.2089536341968516      19.145620077883788      2.3544343977552944
   234   1      5.7671629073574815      16.648365285116334       2.354434397755294
   235   1      7.2089536341968516      15.815947020860518      4.7088687955105897
   236   1      5.7671629073574824       18.31320181362797       4.708868795510587
   237   1      5.7671629073574815      13.318692228093068      4.7088687955105888
   238   1      10.092535087875593      19.145620077883788      2.3544343977552944
   239   1      10.092535087875593      15.815947020860518      4.7088687955105897
   240   1      8.6507443610362227       18.31320181362797      4.7088687955105888
   241   1      8.6507443610362227      9.9890191710698009      7.0633031932658836
   242   1      7.2089536341968516      12.486273963837251      7.0633031932658836
   243   1      5.7671629073574815        14.9835287566047      7.0633031932658836
   244   1      5.7671629073574815      9.9890191710698009      7.0633031932658836
   245   1      5.7671629073574815      11.653855699581435      9.4177375910211776
   246   1      10.092535087875593      12.486273963837251      7.0633031932658836
   247   1      7.2089536341968516      17.480783549372152      7.0633031932658845
   248   1      10.092535087875595      17.480783549372152      7.0633031932658845
   249   1      8.6507443610362227        14.9835287566047      7.0633031932658836
   250   1      7.2089536341968516      14.151110492348884      9.4177375910211794
   251   1      10.092535087875595      14.151110492348884      9.4177375910211794
   252   1      8.6507443610362227      16.648365285116334      9.4177375910211794
   253   1      8.6507443610362227      11.653855699581435      9.4177375910211776
   254   1      7.2089536341968516      10.821437435325619      11.772171988776472
   255   1      10.092535087875595      10.821437435325619      11.772171988776472
   256   1      8.6507443610362227      13.318692228093068      11.772171988776472
   257   1      7.2089536341968534      19.145620077883788      9.4177375910211776
   258   1      5.7671629073574815      16.648365285116334      9.4177375910211776
   259   1      7.2089536341968534      15.815947020860518      11.772171988776472
   260   1      5.7671629073574833       18.31320181362797      11.772171988776472
   261   1      5.7671629073574815      13.318692228093068      11.772171988776471
   262   1      10.092535087875591      19.145620077883784      9.4177375910211776
   263   1      10.092535087875591      15.815947020860516      11.772171988776472
   264   1      8.6507443610362209       18.31320181362797      11.772171988776472
   265   1      8.6507443610362227      9.9890191710698009      14.126606386531767
   266   1      7.2089536341968534      12.486273963837252      14.126606386531765
   267   1      5.7671629073574833      14.983528756604702      14.126606386531765
   268   1      5.7671629073574815      9.9890191710698009      14.126606386531765
   269   1      5.7671629073574833      11.653855699581435       16.48104078428706
   270   1      10.092535087875591      12.486273963837251      14.126606386531765
   271   1      7.2089536341968516      17.480783549372152      14.126606386531764
   272   1      10.092535087875593      17.480783549372152      14.126606386531767
   273   1      8.6507443610362209      14.983528756604702      14.126606386531765
   274   1      7.2089536341968516      14.151110492348884       16.48104078428706
   275   1      10.092535087875593      14.151110492348886      16.481040784287064
   276   1      8.6507443610362245      16.648365285116334       16.48104078428706
   277   1      8.6507443610362209      11.653855699581435       16.48104078428706
   278   1      7.2089536341968516      10.821437435325617      18.835475182042352
   279   1      10.092535087875593      10.821437435325619      18.835475182042355
   280   1      8.6507443610362245      13.318692228093068      18.835475182042355
   281   1      7.2089536341968525      19.145620077883788      16.481040784287064
   282   1      5.7671629073574806      16.648365285116334       16.48104078428706
   283   1      7.2089536341968525       15.81594702086052      18.835475182042359
   284   1      5.7671629073574833       18.31320181362797      18.835475182042355
   285   1      5.7671629073574806      13.318692228093068      18.835475182042355
   286   1      10.092535087875595      19.145620077883784      16.481040784287064
   287   1      10.092535087875595      15.815947020860518      18.835475182042359
   288   1      8.6507443610362227       18.31320181362797      18.835475182042355
   289   1      14.417907268393703 -3.2209304511031581e-17 -3.0342580549518796e-16
   290   1      12.976116541554333      2.4972547927674498 -3.8847619303819922e-16
   291   1      11.534325814714963      4.9945095855349004 -4.0156401607855699e-16
   292   1      11.534325814714963  9.5647153713423681e-17  8.5050387543011261e-17
   293   1      11.534325814714963      1.6648365285116336       2.354434397755294
   294   1      15.859697995233073      2.4972547927674502  1.1658360414370199e-15
   295   1      12.976116541554333      7.4917643783023511  4.7352658058121048e-16
   296   1      15.859697995233075      7.4917643783023511 -4.1465183911891475e-16
   297   1      14.417907268393705      4.9945095855349004  4.8661440362156825e-16
   298   1      12.976116541554333      4.1620913212790835      2.3544343977552953
   299   1      15.859697995233075      4.1620913212790835      2.3544343977552944
   300   1      14.417907268393703      6.6593461140465342      2.3544343977552944
   301   1      14.417907268393705      1.6648365285116333      2.3544343977552948
   302   1      12.976116541554333     0.83241826425581711      4.7088687955105888
   303   1      15.859697995233075     0.83241826425581711      4.7088687955105879
   304   1      14.417907268393703      3.3296730570232671      4.7088687955105888
   305   1      12.976116541554333      9.1566009068139849      2.3544343977552944
   306   1      11.534325814714963      6.6593461140465342      2.3544343977552953
   307   1      12.976116541554333      5.8269278497907164      4.7088687955105897
   308   1      11.534325814714963      8.3241826425581671      4.7088687955105888
   309   1      11.534325814714963      3.3296730570232671      4.7088687955105897
   310   1      15.859697995233073      9.1566009068139849      2.3544343977552944
   311   1      15.859697995233073      5.8269278497907173      4.7088687955105897
   312   1      14.417907268393703      8.3241826425581671      4.7088687955105897
   313   1      14.417907268393705  9.5647153713423681e-17      7.0633031932658827
   314   1      12.976116541554333      2.4972547927674498      7.0633031932658836
   315   1      11.534325814714963      4.9945095855349004      7.0633031932658836
   316   1      11.534325814714963  9.5647153713423681e-17      7.0633031932658836
   317   1      11.534325814714963      1.6648365285116333      9.4177375910211776
   318   1      15.859697995233075      2.4972547927674498      7.0633031932658836
   319   1      12.976116541554333      7.4917643783023511      7.0633031932658827
   320   1      15.859697995233075      7.4917643783023511      7.0633031932658827
   321   1      14.417907268393703      4.9945095855349004      7.0633031932658836
   322   1      12.976116541554333      4.1620913212790835      9.4177375910211776
   323   1      15.859697995233075      4.1620913212790835      9.4177375910211776
   324   1      14.417907268393705      6.6593461140465342      9.4177375910211776
   325   1      14.417907268393703      1.6648365285116333      9.4177375910211776
   326   1      12.976116541554333     0.83241826425581722      11.772171988776471
   327   1      15.859697995233075     0.83241826425581722      11.772171988776471
   328   1      14.417907268393705      3.3296730570232671      11.772171988776472
   329   1      12.976116541554335      9.1566009068139849      9.4177375910211776
   330   1      11.534325814714963      6.6593461140465342      9.4177375910211776
   331   1      12.976116541554335      5.8269278497907173      11.772171988776472
   332   1      11.534325814714965      8.3241826425581671      11.772171988776472
   333   1      11.534325814714963      3.3296730570232671      11.772171988776472
   334   1      15.859697995233073      9.1566009068139849      9.4177375910211758
   335   1      15.859697995233073      5.8269278497907164      11.772171988776471
   336   1      14.417907268393703      8.3241826425581671      11.772171988776471
   337   1      14.417907268393705  1.9129430742684736e-16      14.126606386531765
   338   1      12.976116541554335      2.4972547927674502      14.126606386531767
   339   1      11.534325814714965      4.9945095855349022      14.126606386531767
   340   1      11.534325814714963  1.9129430742684736e-16      14.126606386531765
   341   1      11.534325814714965      1.6648365285116349       16.48104078428706
   342   1      15.859697995233073      2.4972547927674493      14.126606386531765
   343   1      12.976116541554333       7.491764378302352      14.126606386531765
   344   1      15.859697995233075       7.491764378302352      14.126606386531767
   345   1      14.417907268393703      4.9945095855349004      14.126606386531765
   346   1      12.976116541554333      4.1620913212790844       16.48104078428706
   347   1      15.859697995233075      4.1620913212790844       16.48104078428706
   348   1      14.417907268393705       6.659346114046536       16.48104078428706
   349   1      14.417907268393703      1.6648365285116331       16.48104078428706
   350   1      12.976116541554333     0.83241826425581766      18.835475182042355
   351   1      15.859697995233075     0.83241826425581766      18.835475182042355
   352   1      14.417907268393705      3.3296730570232684      18.835475182042355
   353   1      12.976116541554335      9.1566009068139849       16.48104078428706
   354   1      11.534325814714963      6.6593461140465342       16.48104078428706
   355   1      12.976116541554335      5.8269278497907182      18.835475182042355
   356   1      11.534325814714965      8.3241826425581671      18.835475182042355
   357   1      11.534325814714963      3.3296730570232667      18.835475182042355
   358   1      15.859697995233075      9.1566009068139849       16.48104078428706
   359   1      15.859697995233075      5.8269278497907182      18.835475182042355