LAMMPS (11 Feb 2026 - Development - b75dfcc)
OMP_NUM_THREADS environment is not set. Defaulting to 1 thread.
  using 1 OpenMP thread(s) per MPI task
package gpu 1
units metal
boundary p p p
atom_style atomic
timestep 0.002
read_data data.crystal
Reading data file ...
  orthogonal box = (0 0 0) to (52.057201 49.08 52.057201)
  1 by 1 by 1 MPI processor grid
  reading atoms ...
  7776 atoms
  read_data CPU = 0.023 seconds
change_box all triclinic
Changing box ...
  triclinic box = (0 0 0) to (52.057201 49.08 52.057201) with tilt (0 0 0)

pair_style eam
pair_coeff 1 1 Ag_u3.eam
Reading eam potential file Ag_u3.eam with DATE: 2007-06-11

neighbor 2.0 bin
neigh_modify delay 10 check yes

thermo 100
thermo_style custom step temp pe press pxx pyy pzz lx ly lz

print '=== Phase 1: 0K Relaxation ==='
=== Phase 1: 0K Relaxation ===
fix relax all box/relax aniso 0.0 vmax 0.001
minimize 1.0e-8 1.0e-10 10000 100000

CITE-CITE-CITE-CITE-CITE-CITE-CITE-CITE-CITE-CITE-CITE-CITE-CITE

Your simulation uses code contributions which should be cited:

- GPU package (short-range, long-range and three-body potentials): https://doi.org/10.1016/j.cpc.2010.12.021, https://doi.org/10.1016/j.cpc.2011.10.012, https://doi.org/10.1016/j.cpc.2013.08.002, https://doi.org/10.1016/j.commatsci.2014.10.068, https://doi.org/10.1016/j.cpc.2016.10.020, https://doi.org/10.3233/APC200086

@Article{Brown11,
 author = {W. M. Brown and P. Wang and S. J. Plimpton and A. N. Tharrington},
 title = {Implementing Molecular Dynamics on Hybrid High Performance Computers---Short Range Forces},
 journal = {Comput.\ Phys.\ Commun.},
 year =    2011,
 volume =  182,
 pages =   {898--911},
 doi =     {10.1016/j.cpc.2010.12.021}
}

@ArticDone.

Setting up cg style minimization ...
  Unit style    : metal
  Current step  : 0
WARNING: Energy due to 3 extra global DOFs will be included in minimizer energies
 (src/min.cpp:222)
Per MPI rank memory allocation (min/avg/max) = 7.536 | 7.536 | 7.536 Mbytes
   Step          Temp          PotEng         Press           Pxx            Pyy            Pzz             Lx             Ly             Lz      
         0   0             -22161.6       -0.079048517   -0.075182451   -0.086867936   -0.075095165    52.057201      49.08          52.057201    
         3   0             -22161.601      2.1433457      2.1056068      2.2183204      2.10611        52.05717       49.079954      52.05717     
Loop time of 0.0280807 on 1 procs for 3 steps with 7776 atoms

100.0% CPU use with 1 MPI tasks x 1 OpenMP threads

Minimization stats:
  Stopping criterion = linesearch alpha is zero
  Energy initial, next-to-last, final = 
     -22161.6004249313  -22161.6011569416  -22161.6011569416
  Force two-norm initial, final = 0.011410516 0.30827769
  Force max component initial, final = 0.0072113293 0.18415333
  Final line search alpha, max atom move = 8.2859153e-08 1.5258789e-08
  Iterations, force evaluations = 3 40

MPI task timing breakdown:
Section |  min time  |  avg time  |  max time  |%varavg| %total
---------------------------------------------------------------
Pair    | 0.015779   | 0.015779   | 0.015779   |   0.0 | 56.19
Neigh   | 0          | 0          | 0          |   0.0 |  0.00
Comm    | 0.0014319  | 0.0014319  | 0.0014319  |   0.0 |  5.10
Output  | 0          | 0          | 0          |   0.0 |  0.00
Modify  | 4.629e-06  | 4.629e-06  | 4.629e-06  |   0.0 |  0.02
Other   |            | 0.01087    |            |       | 38.69

Nlocal:           7776 ave        7776 max        7776 min
Histogram: 1 0 0 0 0 0 0 0 0 0
Nghost:           9375 ave        9375 max        9375 min
Histogram: 1 0 0 0 0 0 0 0 0 0
Neighs:              0 ave           0 max           0 min
Histogram: 1 0 0 0 0 0 0 0 0 0

Total # of neighbors = 0
Ave neighs/atom = 0
Neighbor list builds = 0
Dangerous builds = 0
=== Phase 2: Equilibration at 300.0K ===


---------------------------------------------------------------------
      Device Time Info (average): 
---------------------------------------------------------------------
Data Transfer:   0.0041 s.
Neighbor copy:   0.0000 s.
Neighbor build:  0.0001 s.
Force calc:      0.0071 s.
Device Overhead: 0.0013 s.
CPU Neighbor:    0.0004 s.
CPU Cast/Pack:   0.0040 s.
CPU Driver_Time: 0.0012 s.
CPU Idle_Time:   0.0071 s.
Average split:   1.0000.
Max Mem / Proc:  7.38 MB.
Prefetch mode:   None.
Vector width:    32.
Lanes / atom:    4.
Pair block:      256.
Neigh block:     128.
Neigh mode:      Hybrid (binning on host) with subgroup support.
Neigh sorting:   Unavailable or disabled.
---------------------------------------------------------------------


--------------------------------------------------------------------------
- Using acceleration for eam:
-  with 1 proc(s) per device.
-  with 1 thread(s) per proc.
-  Horizontal vector operations: ENABLED
-  Shared memory system: No
--------------------------------------------------------------------------
Device 0: NVIDIA RTX A4000, 48 CUs, 16/16 GB, 1.6 GHZ (Mixed Precision)
--------------------------------------------------------------------------

Initializing Device and compiling on process 0...Done.
Initializing Device 0 on core 0...Done.

Setting up Verlet run ...
  Unit style    : metal
  Current step  : 0
  Time step     : 0.002
Per MPI rank memory allocation (min/avg/max) = 5.515 | 5.515 | 5.515 Mbytes
   Step          Temp          PotEng         Press           Pxx            Pyy            Pzz             Lx             Ly             Lz      
         0   300           -22161.601      2423.376       2488.0623      2402.2701      2379.7957      52.05717       49.079954      52.05717     
       100   195.94994     -22017.645      4668.4898      4688.2053      4601.2299      4716.0343      52.125781      49.142512      52.124495    
       200   210.54494     -21955.514      2078.546       2121.7437      2062.8493      2051.0452      52.225179      49.239522      52.219914    
       300   247.85364     -21902.907      24.210687      99.492089      10.419693     -37.279722      52.313402      49.316751      52.312096    
       400   279.35796     -21851.415      292.23795      249.79093      271.84846      355.07445      52.369628      49.34295       52.359891    
       500   308.0044      -21833.686     -219.12426     -106.7922      -255.62785     -294.95273      52.393369      49.362228      52.398687    
       600   302.00147     -21847.267     -112.5651       300.32139     -244.71602     -393.30068      52.349838      49.373999      52.384491    
       700   290.44346     -21858.865     -158.26498     -216.15731     -285.31215      26.67453       52.364407      49.362456      52.350415    
       800   303.05053     -21845.341     -654.64263     -1203.7232     -281.98227     -478.22241      52.434462      49.317324      52.393223    
       900   304.37422     -21839.08      -70.573656      396.57395     -456.61291     -151.68201      52.331346      49.419646      52.37431     
      1000   293.51714     -21854.407      167.54765      86.214808      346.12618      70.301963      52.373994      49.334658      52.364438    
      1100   298.07568     -21851.318      221.13594     -252.48801      399.98498      515.91084      52.409222      49.305537      52.367473    
      1200   307.34272     -21842.762      324.97383      1306.7932     -679.75055      347.87882      52.278771      49.490038      52.324365    
      1300   303.0623      -21852.742      691.49944      170.60475      1555.6238      348.26974      52.413424      49.235898      52.412079    
      1400   301.09781     -21857.763      380.10936      185.73445     -84.180386      1038.774       52.347832      49.407361      52.297626    
      1500   305.16937     -21845.324     -100.93826      696.12247     -443.80767     -555.12957      52.324719      49.40605       52.381384    
      1600   301.93064     -21844.402     -118.70572     -475.17041      661.36067     -542.30743      52.431453      49.259033      52.432779    
      1700   289.01775     -21849.564      5.6361809     -28.050799     -604.1905       649.14985      52.341177      49.454538      52.291123    
      1800   295.68961     -21843.051     -591.11071     -318.99536     -312.06622     -1142.2705      52.37405       49.337773      52.432551    
      1900   307.33825     -21844.967     -910.37062     -1152.8609     -900.48666     -677.76433      52.393506      49.386764      52.378302    
      2000   298.56357     -21854.46      -249.80783     -330.27198     -502.82373      83.672237      52.368267      49.397612      52.329913    
      2100   301.9915      -21852.375      502.4273       675.96105      987.68234     -156.36148      52.358198      49.298597      52.412223    
      2200   308.13507     -21846.893      800.28109      725.36858      344.54918      1330.9255      52.330764      49.432115      52.298177    
      2300   299.22795     -21850.492      1350.2259      1191.6028      1431.1179      1427.9568      52.349707      49.338629      52.336841    
      2400   298.23676     -21852.309      1150.061       1053.7691      1380.7417      1015.6721      52.3446        49.325281      52.362202    
      2500   302.94358     -21843.526      429.60691      373.42744      111.64723      803.74608      52.349455      49.421007      52.318041    
Loop time of 1.62472 on 1 procs for 2500 steps with 7776 atoms

Performance: 265.892 ns/day, 0.090 hours/ns, 1538.725 timesteps/s, 11.965 Matom-step/s
99.8% CPU use with 1 MPI tasks x 1 OpenMP threads

MPI task timing breakdown:
Section |  min time  |  avg time  |  max time  |%varavg| %total
---------------------------------------------------------------
Pair    | 0.91649    | 0.91649    | 0.91649    |   0.0 | 56.41
Neigh   | 0          | 0          | 0          |   0.0 |  0.00
Comm    | 0.086888   | 0.086888   | 0.086888   |   0.0 |  5.35
Output  | 0.0016325  | 0.0016325  | 0.0016325  |   0.0 |  0.10
Modify  | 0.57148    | 0.57148    | 0.57148    |   0.0 | 35.17
Other   |            | 0.04823    |            |       |  2.97

Nlocal:           7776 ave        7776 max        7776 min
Histogram: 1 0 0 0 0 0 0 0 0 0
Nghost:           9375 ave        9375 max        9375 min
Histogram: 1 0 0 0 0 0 0 0 0 0
Neighs:              0 ave           0 max           0 min
Histogram: 1 0 0 0 0 0 0 0 0 0

Total # of neighbors = 0
Ave neighs/atom = 0
Neighbor list builds = 0
Dangerous builds = 0
=== Phase 3: Tension ===


---------------------------------------------------------------------
      Device Time Info (average): 
---------------------------------------------------------------------
Data Transfer:   0.2369 s.
Neighbor copy:   0.0000 s.
Neighbor build:  0.0001 s.
Force calc:      0.4185 s.
Device Overhead: 0.0642 s.
CPU Neighbor:    0.0002 s.
CPU Cast/Pack:   0.21unfix eq

print '=== Phase 3: Tension ==='
=== Phase 3: Tension ===
reset_timestep 0

# 初期z寸法の記録
variable tmp equal lz
variable lz0 equal ${tmp}
variable lz0 equal 52.3180410068987
variable tmp delete

# z軸変形 + x,yゼロ圧力（Poisson収縮を許容）
fix deform_fix all deform 1 z erate 0.0005 remap x
fix npt_fix all npt temp 300.0 300.0 0.1 x 0.0 0.0 1.0 y 0.0 0.0 1.0 xy 0.0 0.0 1.0 xz 0.0 0.0 1.0 yz 0.0 0.0 1.0

# ひずみ・応力（sigma = -P [GPa]）
variable strain equal (lz-v_lz0)/v_lz0
variable stress equal -pzz/10000

# 欠陥解析用compute
# stress/atom: 単位は bar*Å³（実応力はボロノイ体積で割る必要あり）
compute peratom all stress/atom NULL
compute cna all cna/atom 3.493
compute csym all centro/atom fcc

thermo 100
thermo_style custom step temp v_strain v_stress pxx pyy pzz lx ly lz

fix out1 all print 100 "${strain} ${stress}" file stress_strain.txt screen no
dump 1 allDone.

Neighbor list info ...
  update: every = 1 steps, delay = 10 steps, check = yes
  max neighbors/atom: 2000, page size: 100000
  master list distance cutoff = 7.55
  ghost atom cutoff = 7.55
  binsize = 3.775, bins = 14 14 14
  2 neighbor lists, perpetual/occasional/extra = 0 2 0
  (1) compute cna/atom, occasional
      attributes: full, newton on
      pair build: full/bin/atomonly
      stencil: full/bin/3d
      bin: standard
  (2) compute centro/atom, occasional
      attributes: full, newton on
      pair build: full/bin/atomonly
      stencil: full/bin/3d
      bin: standard
Setting up Verlet run ...
  Unit style    : metal
  Current step  : 0
  Time step     : 0.002
Per MPI rank memory allocation (min/avg/max) = 8.935 | 8.935 | 8.935 Mbytes
   Step          Temp         v_strain       v_stress    v_stress_drop  v_drop_from_peak      Pxx            Pyy            Pzz             Lx             Ly             Lz      
         0   302.94358     -9.5068528e-16 -0.080374675    0              0.080374675    373.42635      111.64777      803.74675      52.349455      49.421007      52.318041    
       100   299.18872      0.0001        -0.072060206   -0.0041572346   0.072060206    736.65119      290.38001      720.60206      52.340198      49.402292      52.323273    
       200   300.49894      0.0002        -0.12090642     0.02979265     0.12090642     95.219097      564.34507      1209.0642      52.367685      49.365899      52.328505    
       300   302.13257      0.0003        -0.032500685   -0.04395981     0.032500685    595.59812     -6.7432219      325.00685      52.337291      49.421668      52.333736    
       400   302.18351      0.0004        -0.065880201   -0.0084642354   0.065880201   -17.512323      479.71344      658.80201      52.400365      49.356041      52.338968    
       500   298.05062      0.0005        -0.015703557   -0.0488674      0.015703557    219.026       -171.07923      157.03557      52.353366      49.395939      52.3442      
       600   300.77123      0.0006        -0.053952984   -0.0091011194   0.053952984    30.435562      273.06328      539.52984      52.3781        49.361163      52.349432    
       700   298.45433      0.0007        -0.056044712   -0.0061332172   0.056044712    830.95757      408.75601      560.44712      52.346229      49.389317      52.354664    
       800   299.1298       0.0008        -0.026873911   -0.03138135     0.026873911    534.28569      496.41233      268.73911      52.343265      49.366278      52.359895    
       900   301.7165       0.0009        -0.017949678   -0.036275024    0.017949678    253.00188      544.56004      179.49678      52.367821      49.351413      52.365127    
      1000   302.3956       0.001         -0.006228788   -0.040581326    0.006228788    447.48688      191.37601      62.28788       52.349464      49.371769      52.370359    
      1100   302.65918      0.0011         0.00092987949 -0.040440985    0              192.84533      28.423843     -9.2987949      52.358226      49.354873      52.375591    
      1200   302.33518      0.0012        -0.021853379   -0.0077524226   0.022783259        -0.015703557   -0.0488674      0.015703557    219.026       -171.07923      157.03557      52.353366      49.395939      52.3442      
       600   300.77123      0.0006        -0.053952984   -0.0091011194   0.053952984    30.435562      273.06328      539.52984      52.3781        49.361163      52.349432    
       700   298.45433      0.0007        -0.056044712   -0.0061332172   0.056044712    830.95757      408.75601      560.44712      52.346229      49.389317      52.354664    
       800   299.1298       0.0008        -0.026873911   -0.03138135     0.026873911    534.28569      496.41233      268.73911      52.343265      49.366278      52.359895    
       900   301.7165       0.0009        -0.017949678   -0.036275024    0.017949678    253.00188      544.56004      179.49678      52.367821      49.351413      52.365127    
      1000   302.3956       0.001         -0.006228788   -0.040581326    0.006228788    447.48    49.34728       52.406982    
      1800   301.96875      0.0018         0.043651181   -0.025683012    0.048201501   -10.695241      703.43205     -436.51181      52.381212      49.305214      52.412213    
      1900   300.43283      0.0019         0.10339515    -0.073292498    0              828.13169     -319.67531     -1033.9515      52.313777      49.378048      52.417445    
      2000   302.00858      0.002          0.053467742   -0.017395436    0.049927409   -207.8353       537.64488     -534.67742      52.404881      49.274587      52.422677    
      2100   302.54925      0.0021         0.14636115    -0.095745719    0              232.77748     -227.34312     -1463.6115      52.346589      49.35346       52.427909    
      2200   306.52447      0.0022         0.12606663    -0.060659193    0.020294525   -357.20258      118.79233     -1260.6663      52.397413      49.298257      52.433141    
      2300   298.05019      0.0023         0.1693832     -0.086182293    0             -30.361203     -268.7538      -1693.832       52.354856      49.34179       52.438373    
      2400   298.4072       0.0024         0.13508575    -0.040543019    0.034297451    38.673886      99.65927      -1350.8575      52.377243      49.316774      52.443604    
      2500   296.36114      0.0025         0.14888386    -0.044402182    0.020499341   -273.88992     -138.16595     -1488.8386      52.377996      49.310766      52.448836    
      2600   298.79857      0.0026         0.2119598     -0.088949082    0             -617.07568     -572.9281      -2119.598       52.372668      49.328362      52.454068    
      2700   297.80448      0.0027         0.16522933    -0.034880952    0.046730465   -381.79881     -215.84632     -1652.2933      52.407814      49.285602      52.4593      
      2800   300.30003      0.0028         0.21926566    -0.071355835    0             -223.62319     -668.43883     -2192.6566      52.369621      49.330596      52.464532    
      2900   295.60767      0.0029         0.1963307     -0.03912732     0.02293496    -552.62924     -315.59573     -1963.307       52.391951      49.294574      52.469763    
      3000   298.78983      0.003          0.22444506    -0.050143947    0             -624.97028     -720.58685     -2244.4506      52.37338       49.320717      52.474995    
      3100   301.97918      0.0031         0.21232619    -0.031428574    0.012118869   -1136.2233     -358.85155     -2123.2619      52.430175      49.272688      52.480227    
      3200   299.16387      0.0032         0.28171656    -0.085253946    0             -661.78906     -1376.5874     -2817.1656      52.35614       49.337929      52.485459    
      3300   301.57699      0.0033         0.21601879    -0.014892622    0.065697766   -1372.4701     -609.01659     -2160.1879      52.427763      49.260862      52.490691    
      3400   298.03861      0.0034         0.2762535     -0.061010555    0.0054630571  -316.97568     -916.95016     -2762.535       52.367343      49.325523      52.495922    
      3500   295.47269      0.0035         0.22593124    -0.0029835575   0.055785317   -243.33122     -150.924071355835    0             -223.62319     -668.43883     -2192.6566      52.369621      49.330596      52.464532    
      2900   295.60767      0.0029         0.1963307     -0.03912732     0.02293496    -552.62924     -315.59573     -1963.307       52.391951      49.294574      52.469763    
      3000   298.78983      0.003          0.22444506    -0.050143947    0             -624.97028     -720.58685     -2244.4506      52.37338       49.320717      52.474995    
      3100   301.97918      0.0031         0.21232619    -0.031428574    0.012118869   -1136.2233     -358.85155     -2123.2619      52.430175      49.272688      52.480227    
      3200   299.16387      0.0032         0.28171656    -0.085253946    0             -661.78906     -1376.5874     -2817.1656      52.35614       49.337929      52.485459    
      3300   301.57699      0.0033         0.21601879    -0.014892622    0.065697766   -1372.4701     -609.01659     -2313    
      4100   296.09054      0.0041         0.28396322    -0.025536397    0.001897512   -294.16522     -73.103423     -2839.6322      52.398198      49.252431      52.532545    
      4200   298.28748      0.0042         0.30141079    -0.041014543    0             -350.49739     -340.53948     -3014.1079      52.391068      49.242447      52.537777    
      4300   297.58655      0.0043         0.33881278    -0.066137131    0             -310.43833     -516.40083     -3388.1278      52.363875      49.260595      52.543009    
      4400   304.80057      0.0044         0.32250458    -0.045203826    0.016308197   -641.57468     -164.44059     -3225.0458      52.405731      49.22647       52.54824     
      4500   302.18212      0.0045         0.3443756     -0.055230404    0              119.86466     -177.28533     -3443.756       52.359438      49.264775      52.553472    
      4600   295.58629      0.0046         0.27656716     0.016253862    0.067808442   -43.715071      606.20482     -2765.6716      52.405929      49.187436      52.558704    
      4700   302.62386      0.0047         0.37797296    -0.071811615    0              288.14335     -447.15444     -3779.7296      52.347422      49.265156      52.563936    
      4800   306.34218      0.0048         0.32601127    -0.012652504    0.051961683   -96.065489      204.46066     -3260.1127      52.412494      49.188331      52.569168    
      4900   301.14949      0.0049         0.34208367    -0.022127395    0.035889284    178.02178     -61.98398      -3420.8367      52.354972      49.23218       52.574399    
      5000   296.53128      0.005          0.32277847     0.00086957758  0.055194483    424.15135      461.66763     -3227.7847      52.37301       49.207992      52.579631    
      5100   302.41118      0.0051         0.33928594    -0.010105613    0.038687021    347.55233      76.108618     -3392.8594      52.375571      49.213762      52.584863    
      5200   299.64327      0.0052         0.35302962    -0.018687416    0.024943335    280.01514      329.65569     -3530.2962      52.378727      49.190228      52.590095    
      5300   302.77572      0.0053         0.35266715    -0.016939509    0.025305805    393.59094      281.88937     -3526.6715      52.367807      49.211125      52.595327    
      5400   297.97729      0.0054         0.34799965    -0.0097224988   0.029973309    792.4638       667.22577     -3479.9965      52.387654      49.178662      52.600558    
      5500   298.51031      0.0055         0.38954771    -0.046753354    0              256.36835      204.66454     -3895.4771      52.387813      49.182782      52.60579     
      5600   302.53493      0.0056         0.3835031     -0.030015147    0.0060446121   164.61431      253.89903     -3835.031       52.389739      49.187222      52.611022    
      5700   302.65869      0.0057         0.35668119    -0.0053224144   0.032866521    202.78643      581.39499     -3566.8119      52.405643      49.156077      52.616254    
      5800   300.72481      0.0058         0.40790272    -0.048354793    0              673.06409     -93.068869     -4079.0272      52   347.55233      76.108618     -3392.8594      52.375571      49.213762      52.584863    
      5200   299.64327      0.0052         0.35302962    -0.018687416    0.024943335    280.01514      329.65569     -3530.2962      52.378727      49.190228      52.590095    
      5300   302.77572      0.0053         0.35266715    -0.016939509    0.025305805    393.59094      281.88937     -3526.6715      52.367807      49.211125      52.595327    
      5400   297.97729      0.0054         0.34799965    -0.0097224988   0.029973309    792.4638       667.22577     -3479.9965      52.387654      49.178662      52.600558    
      5500   298.51031      0.0055         0.38954771    -0.046753354    0              256.36835      204.66454     -3895.4771      52.387813      49.182782      52.60579     
      5600   302.53493      0.0056         0.3835031     -0.030015147    0.0060446121   164.61431      253.89903     -3835.031       52.389739  49373      0.0064         0.4557357     -0.06989015     0              559.0703       185.06335     -4557.357       52.387442      49.155346      52.652876    
      6500   292.84456      0.0065         0.42948518    -0.039645879    0.026250524    368.02467      583.02312     -4294.8518      52.394718      49.127962      52.658108    
      6600   297.89692      0.0066         0.45347391    -0.05663753     0.0022617929   324.36405      244.62801     -4534.7391      52.385692      49.151201      52.66334     
      6700   301.88456      0.0067         0.47734183    -0.068439389    0              361.73         129.33262     -4773.4183      52.398492      49.135572      52.668572    
      6800   297.88476      0.0068         0.48760572    -0.070732978    0              542.77476      207.34441     -4876.0572      52.381695      49.124559      52.673804    
      6900   297.70969      0.0069         0.45294426    -0.023606977    0.034661461    576.23625      550.65007     -4529.4426      52.385882      49.122113      52.679035    
      7000   301.90562      0.007          0.49579215    -0.05636054     0              765.75959      330.1407      -4957.9215      52.394153      49.1181        52.684267    
      7100   300.29021      0.0071         0.50461722    -0.049017109    0              157.98101      549.43481     -5046.1722      52.415845      49.097312      52.689499    
      7200   302.44644      0.0072         0.55217572    -0.080985081    0              402.55352     -16.913547     -5521.7572      52.383459      49.142349      52.694731    
      7300   298.15369      0.0073         0.48199002    -0.0028738522   0.070185694   -95.393435      507.12624     -4819.9002      52.420353      49.098849      52.699963    
      7400   295.7156       0.0074         0.57658257    -0.08538171     0              163.56412     -157.57472     -5765.8257      52.38659       49.135922      52.705195    
      7500   296.33617      0.0075         0.51345155    -0.013854052    0.06313102     127.60203      487.15937     -5134.5155      52.426017      49.08453       52.710426    
      7600   301.19969      0.0076         0.55027034    -0.0409932      0.02631223     488.07381      138.58802     -5502.7034      52.385142      49.115834      52.715658    
      7700   299.89625      0.0077         0.53455302    -0.01955476     0.042029552    393.26838      415.68544     -5345.5302      52.415905      49.074205      52.72089     
      7800   297.98527      0.0078         0.5604294     -0.038148774    0.01615317     177.7771       380.81129     -5604.294       52.408266      49.071961      52.726122    
      7900   299.00174      0.0079         0.56883619    -0.034966372    0.0077463798   557.31478      348.66108     -5688.3619      52.394039      49.090185      52.731354    
      8000   301.32561      0.008          0.54204024    -0.00354561     0.034542332    441.35337      652.63603     -5420.4024      52.399993      49.075951      52.736585    
      8100   296.99104      0.0081         0.57855479    -0.032666407    0              949.12001      397.15496     -5785.5479      52.362747      49.100133   72     -5765.8257      52.38659       49.135922      52.705195    
      7500   296.33617      0.0075         0.51345155    -0.013854052    0.06313102     127.60203      487.15937     -5134.5155      52.426017      49.08453       52.710426    
      7600   301.19969      0.0076         0.55027034    -0.0409932      0.02631223     488.07381      138.58802     -5502.7034      52.385142      49.115834      52.715658    
      7700   299.89625      0.0077         0.53455302    -0.01955476     0.042029552    393.26838      415.68544     -5345.5302      52.415905      49.074205      52.72089     
      7800   297.98527      0.0078         0.5604294     -0.038148774    0.01615317     177.7771       380.81129     -5604.294       52.408266      49.071961      52.726122    
      7900   299.00174      0.0079         0.56883619    -0.034966372    0.0077463798   557.31478      348.66108     -5688.3619      52.394039      49.090185      52.731 0.61568473    -0.039639266    0.0019779246   917.53484      507.04133     -6156.8473      52.378911      49.062123      52.773208    
      8800   297.69388      0.0088         0.59757817    -0.017817827    0.020084487    733.28952      551.06188     -5975.7817      52.405801      49.039245      52.77844     
      8900   300.21699      0.0089         0.60232311    -0.019214074    0.015339548    632.53657      588.32084     -6023.2311      52.393233      49.047584      52.783672    
      9000   300.92803      0.009          0.68497479    -0.087572298    0              198.54777     -55.619685     -6849.7479      52.394923      49.05936       52.788903    
      9100   293.31664      0.0091         0.64525872    -0.041185843    0.039716062    314.22897      627.15501     -6452.5872      52.419126      49.017274      52.794135    
      9200   301.54529      0.0092         0.71425146    -0.092793688    0             -150.29105     -497.40323     -7142.5146      52.409988      49.068416      52.799367    
      9300   298.36825      0.0093         0.70211333    -0.070510034    0.01213813    -886.48631     -215.59818     -7021.1333      52.450222      49.028881      52.804599    
      9400   301.56337      0.0094         0.75351206    -0.10367903     0             -517.36794     -1155.7951     -7535.1206      52.401876      49.084848      52.809831    
      9500   301.19358      0.0095         0.70022198    -0.042133011    0.053290082   -984.45145     -523.43009     -7002.2198      52.461819      49.027842      52.815062    
      9600   299.39368      0.0096         0.77370497    -0.094742641    0             -910.8426      -987.18412     -7737.0497      52.42678       49.055349      52.820294    
      9700   301.08943      0.0097         0.74556955    -0.053618736    0.028135423   -802.02303     -748.22549     -7455.6955      52.441317      49.034376      52.825526    
      9800   301.79499      0.0098         0.7903468     -0.079119125    0             -1221.1649     -1158.0448     -7903.468       52.441559      49.049909      52.830758    
      9900   295.10914      0.0099         0.79648696    -0.065842899    0             -1034.2412     -897.11683     -7964.8696      52.448493      49.024327      52.83599     
     10000   297.27299      0.01           0.79476351    -0.053140576    0.0017234507  -1263.1633     -865.13258     -7947.6351      52.457996      49.026185      52.841221    
     10100   301.50796      0.0101         0.84047607    -0.079331398    0             -1317.4619     -1505.2881     -8404.7607      52.441722      49.052536      52.846453    
     10200   298.3677       0.0102         0.80775893    -0.037263513    0.032717139   -1747.8333     -832.77508     -8077.5893      52.492007      48.98359       52.851685    
     10300   296.04185      0.0103         0.90357307    -0.11293168     0             -1235.958      -1635.8794     -9035.7307      52.430447      49.046614      52.856917    
     10400   295.18609      0.0104         0.79158393     0.0028646461   0.11198914    -1597.4278     -415.76928     -7915.8393      52.50717       48.955313      52.862149    
     105.441317      49.034376      52.825526    
      9800   301.79499      0.0098         0.7903468     -0.079119125    0             -1221.1649     -1158.0448     -7903.468       52.441559      49.049909      52.830758    
      9900   295.10914      0.0099         0.79648696    -0.065842899    0             -1034.2412     -897.11683     -7964.8696      52.448493      49.024327      52.83599     
     10000   297.27299      0.01           0.79476351    -0.053140576    0.0017234507  -1263.1633     -865.13258     -7947.6351      52.457996      49.026185      52.841221    
     10100   301.50796      0.0101         0.84047607    -0.079331398    0             -1317.4619     -1505.2881     -8404.7607      52.441722      49.052536      52.846453    
     10200   298.3677       0.0102         0.80775893    -0.037263513    0.032717139   -1747.8333     -832.77508     -8077.5893      52.492007      48.98359       52.851685    
     10300   296.64    0.082276686    193.57084      202.47137     -8212.9639      52.433329      48.954522      52.893539    
     11100   298.63557      0.0111         0.83888808    -0.0043812247   0.064684996   -126.43869      58.998598     -8388.8808      52.432027      48.958272      52.898771    
     11200   300.97765      0.0112         0.839358      -0.0016912452   0.064215069    840.17852      376.03946     -8393.58        52.400205      48.973169      52.904003    
     11300   298.68037      0.0113         0.75158148     0.070886121    0.15199159     693.6303       1107.7681     -7515.8148      52.431335      48.914838      52.909235    
     11400   297.60037      0.0114         0.84418589    -0.016458096    0.059387181    1568.3178      723.64173     -8441.8589      52.36894       48.96707       52.914467    
     11500   304.80164      0.0115         0.75773498     0.059983489    0.1458381      887.66379      1073.3931     -7577.3498      52.444017      48.893294      52.919698    
     11600   302.21316      0.0116         0.81353021     0.00310761     0.090042859    1035.6836      499.24309     -8135.3021      52.392186      48.946041      52.92493     
     11700   298.09736      0.0117         0.81783582    -0.0063142399   0.08573725     778.18816      791.64649     -8178.3582      52.422996      48.913555      52.930162    
     11800   297.48292      0.0118         0.8576147     -0.041990581    0.04595837     540.14715      697.23303     -8576.147       52.446612      48.904425      52.935394    
     11900   306.24583      0.0119         0.9235252     -0.096970123    0              381.83726     -55.715372     -9235.252       52.412696      48.955679      52.940626    
     12000   299.2821       0.012          0.87233327    -0.040674503    0.051191932   -6.5693937      438.26629     -8723.3327      52.450052      48.89906       52.945857    
     12100   296.05993      0.0121         0.90703026    -0.06855728     0.016494936    562.59359     -192.60506     -9070.3026      52.403442      48.951118      52.951089    
     12200   299.78049      0.0122         0.87444009    -0.0324589      0.049085108    40.750227      475.55305     -8744.4009      52.469745      48.8833        52.956321    
     12300   303.05525      0.0123         0.97445948    -0.11019049     0              282.54524     -731.01109     -9744.5948      52.396505      48.963992      52.961553    
     12400   297.75482      0.0124         0.88887095    -0.020133452    0.085588533   -452.56108      400.06078     -8888.7095      52.481725      48.858226      52.966785    
     12500   299.2348       0.0125         0.99991573    -0.10696016     0             -47.894197     -802.43177     -9999.1573      52.405544      48.977197      52.972017    
     12600   301.21581      0.0126         0.92121684    -0.017492609    0.07869889    -943.79432      104.80543     -9212.1684      52.5048        48.861789      52.977248    
     12700   297.76646      0.0127         0.98820794    -0.067446491    0.011707797   -597.40938     -482.59756     -9882.0794      52.44215       48.920164      52.98248     
     12800   304.24762      0.012   52.945857    
     12100   296.05993      0.0121         0.90703026    -0.06855728     0.016494936    562.59359     -192.60506     -9070.3026      52.403442      48.951118      52.951089    
     12200   299.78049      0.0122         0.87444009    -0.0324589      0.049085108    40.750227      475.55305     -8744.4009      52.469745      48.8833        52.956321    
     12300   303.05525      0.0123         0.97445948    -0.11019049     0              282.54524     -731.01109     -9744.5948      52.396505      48.963992      52.961553    
     12400   297.75482      0.0124         0.88887095    -0.020133452    0.085588533   -452.56108      400.06078     -8888.7095      52.481725      48.858226      52.966785    
     12500   299.2348       0.0125         0.99991573    -0.10696016     0             -47.894197     -802.43177     -9999.1573      52.405544      48.977197      52.972017    
     12600   301.21581      0.0126        .5926      18.139088     -9646.0889      52.522564      48.815931      53.013871    
     13400   301.37589      0.0134         1.1055121     -0.10827448     0             -340.85125     -1435.0779     -11055.121      52.403898      48.961581      53.019103    
     13500   301.71101      0.0135         0.97609069     0.018764436    0.12942142    -1627.7695      22.931596     -9760.9069      52.548436      48.807471      53.024335    
     13600   303.90239      0.0136         1.1563244     -0.13795851     0             -637.99777     -1646.4246     -11563.244      52.413513      48.948019      53.029566    
     13700   303.62539      0.0137         1.0423585     -0.018577601    0.11396585    -1811.9796     -343.26157     -10423.585      52.523728      48.812356      53.034798    
     13800   301.07875      0.0138         1.1081765     -0.075699707    0.048147941   -653.59485     -1115.3878     -11081.765      52.435966      48.908201      53.04003     
     13900   298.30616      0.0139         1.0300807      0.010679697    0.12624369    -997.46641     -168.66881     -10300.807      52.494149      48.83869       53.045262    
     14000   297.93386      0.014          1.0382377      0.0039545503   0.11808667    -454.35265     -407.77764     -10382.377      52.467526      48.871842      53.050494    
     14100   299.74147      0.0141         1.0880338     -0.031577147    0.068290584   -736.67692     -904.62381     -10880.338      52.43908       48.883187      53.055725    
     14200   298.53218      0.0142         1.0473271      0.0083479414   0.10899729    -710.83675     -333.50853     -10473.271      52.493672      48.812786      53.060957    
     14300   301.84447      0.0143         1.0960624     -0.027241983    0.060262022   -130.23646     -1020.1132     -10960.624      52.434971      48.88849       53.066189    
     14400   299.79981      0.0144         1.0382502      0.023844       0.1180742     -361.48635      187.29001     -10382.502      52.486355      48.800251      53.071421    
     14500   298.50949      0.0145         1.099557      -0.025116176    0.056767388    154.42794     -527.65387     -10995.57       52.451124      48.833305      53.076653    
     14600   301.50313      0.0146         1.0720212     -0.0060106967   0.084303186   -423.92588     -114.87744     -10720.212      52.477967      48.814587      53.081884    
     14700   301.22677      0.0147         1.1265602     -0.052129539    0.029764176   -392.92045     -399.82794     -11265.602      52.475068      48.816287      53.087116    
     14800   297.55737      0.0148         1.125434      -0.049277538    0.030890425   -371.17045     -447.52897     -11254.34       52.460389      48.813861      53.092348    
     14900   300.55448      0.0149         1.1640716     -0.07451604     0             -657.51245     -681.02021     -11640.716      52.469182      48.829958      53.09758     
     15000   298.15535      0.015          1.1020509     -0.0061141078   0.062020609   -550.91209     -120.66759     -11020.509      52.493418      48.794593      53.102812    
     15100   295.91472      0.0151         1.1416976     -00   299.79981      0.0144         1.0382502      0.023844       0.1180742     -361.48635      187.29001     -10382.502      52.486355      48.800251      53.071421    
     14500   298.50949      0.0145         1.099557      -0.025116176    0.056767388    154.42794     -527.65387     -10995.57       52.451124      48.833305      53.076653    
     14600   301.50313      0.0146         1.0720212     -0.0060106967   0.084303186   -423.92588     -114.87744     -10720.212      52.477967      48.814587      53.081884    
     14700   301.22677      0.0147         1.1265602     -0.052129539    0.029764176   -392.92045     -399.82794     -11265.602      52.475068      48.816287      53.087116    
     14800   297.55737      0.0148         1.125434      -0.049277538    0.030890425   -371.17045     -447.52897     -11254.34       52.460389      48.813861      53.092348    
     14900   300.55448      0.0149         1.1640716     -0.0745160-11601.372      52.453947      48.81943       53.134202    
     15700   298.72731      0.0157         1.1438117     -0.006730072    0.020259847   -281.18954     -8.7522845     -11438.117      52.477352      48.766664      53.139434    
     15800   297.40702      0.0158         1.1981403     -0.053788014    0             -25.91061      -397.26812     -11981.403      52.445378      48.804594      53.144666    
     15900   299.94815      0.0159         1.1116377      0.027471164    0.086502562   -254.24146      552.04694     -11116.377      52.506057      48.73049       53.149898    
     16000   297.43772      0.016          1.2158933     -0.065400216    0              585.87747     -98.35011      -12158.933      52.416059      48.803598      53.15513     
     16100   300.94767      0.0161         1.1294151      0.019849796    0.086478269    197.49517      668.94844     -11294.151      52.477044      48.727561      53.160361    
     16200   299.8389       0.0162         1.1413369      0.010779258    0.074556431    1078.5185      662.89634     -11413.369      52.446236      48.750476      53.165593    
     16300   296.07126      0.0163         1.1143625      0.03360976     0.10153088     1294.965       1236.1504     -11143.625      52.431283      48.720112      53.170825    
     16400   300.22434      0.0164         1.1155954      0.032730112    0.10029793     1036.2983      982.07527     -11155.954      52.446426      48.708529      53.176057    
     16500   304.57441      0.0165         1.1363609      0.010308218    0.079532461    1602.3908      1154.4083     -11363.609      52.414363      48.735992      53.181289    
     16600   303.98612      0.0166         1.0942999      0.045785477    0.12159345     1297.8537      1170.6629     -10942.999      52.445514      48.701607      53.18652     
     16700   301.26181      0.0167         1.1268157      0.011570094    0.089077671    1517.9822      830.77413     -11268.157      52.425647      48.719927      53.191752    
     16800   296.76785      0.0168         1.1480753     -0.014696056    0.067818017    1271.5357      887.59345     -11480.753      52.445478      48.70103       53.196984    
     16900   301.7396       0.0169         1.1769195     -0.037012073    0.03897382     730.53014      682.16282     -11769.195      52.47517       48.701424      53.202216    
     17000   302.2952       0.017          1.2098641     -0.070559589    0.0060292265   463.49962      315.67829     -12098.641      52.457487      48.72106       53.207448    
     17100   299.22039      0.0171         1.2176544     -0.06952593     0              358.44138      544.4968      -12176.544      52.474506      48.688571      53.21268     
     17200   297.8172       0.0172         1.207667      -0.052905501    0.009987424    775.09852      474.82942     -12076.67       52.459381      48.705322      53.217911    
     17300   300.84171      0.0173         1.206238      -0.042288963    0.011416411    227.75152      357.41378     -12062.38       52.503212      48.672459      53.223143    
     17400   300.32636      0.0174         1.2965221     -0.11448045     0         7         1.1268157      0.011570094    0.089077671    1517.9822      830.77413     -11268.157      52.425647      48.719927      53.191752    
     16800   296.76785      0.0168         1.1480753     -0.014696056    0.067818017    1271.5357      887.59345     -11480.753      52.445478      48.70103       53.196984    
     16900   301.7396       0.0169         1.1769195     -0.037012073    0.03897382     730.53014      682.16282     -11769.195      52.47517       48.701424      53.202216    
     17000   302.2952       0.017          1.2098641     -0.070559589    0.0060292265   463.49962      315.67829     -12098.641      52.457487      48.72106       53.207448    
     17100   299.22039      0.0171         1.2176544     -0.06952593     0              358.44138      544.4968      -12176.544      52.474506      48.688571      53.21268     
     17200   297.8172       0.0172         1.207667      -0.052905501    0.009987424    775.      48.714371      53.254534    
     18000   295.88869      0.018          1.3358955     -0.0729084      0             -973.13613     -637.51821     -13358.955      52.509974      48.687094      53.259766    
     18100   298.67394      0.0181         1.3817533     -0.10235632     0             -1114.862      -1121.1659     -13817.533      52.511762      48.708352      53.264998    
     18200   294.97348      0.0182         1.3669416     -0.071617185    0.014811664   -1112.4899     -871.21572     -13669.416      52.518327      48.687272      53.270229    
     18300   292.19414      0.0183         1.4112578     -0.095431369    0             -940.9698      -888.79032     -14112.578      52.500429      48.696746      53.275461    
     18400   301.23158      0.0184         1.3617135     -0.03936792     0.049544315   -1337.2977     -872.44745     -13617.135      52.549485      48.646704      53.280693    
     18500   299.24584      0.0185         1.3495791     -0.017914861    0.061678671   -570.26037     -530.42939     -13495.791      52.49694       48.67977       53.285925    
     18600   299.04776      0.0186         1.3799087     -0.036072383    0.031349083   -13.841573     -378.94015     -13799.087      52.464005      48.692746      53.291157    
     18700   302.76755      0.0187         1.3497068      0.0034607421   0.061551034   -222.02622      79.549076     -13497.068      52.507322      48.631923      53.296388    
     18800   296.84731      0.0188         1.3742552     -0.0098194986   0.037002611    145.10322     -384.43517     -13742.552      52.459331      48.6731        53.30162     
     18900   300.07746      0.0189         1.3478069      0.018074959    0.06345092    -53.642034      156.55965     -13478.069      52.480548      48.644263      53.306852    
     19000   300.99213      0.019          1.3896303     -0.018374992    0.021627487    398.46984     -9.5415004     -13896.303      52.47537       48.655988      53.312084    
     19100   295.09692      0.0191         1.3383511      0.028563975    0.07290667     276.53231      485.63971     -13383.511      52.503529      48.606949      53.317316    
     19200   295.06466      0.0192         1.4186872     -0.046597563    0              689.8878      -55.162845     -14186.872      52.438199      48.662283      53.322547    
     19300   296.61307      0.0193         1.2962226      0.064363573    0.12246466     200.88469      638.19298     -12962.226      52.518024      48.582485      53.327779    
     19400   300.49522      0.0194         1.4071961     -0.04206169     0.011491135    753.03342      18.207382     -14071.961      52.456179      48.653002      53.333011    
     19500   302.23806      0.0195         1.3888703     -0.019806789    0.029816918    333.1904       388.56993     -13888.703      52.497213      48.58646       53.338243    
     19600   300.57535      0.0196         1.3875956     -0.01776345     0.031091563    669.43992      438.66367     -13875.956      52.477534      48.601463      53.343475    
     19700   301.48681      0.0197         1.3416746      0.027354339    0.077012562    886.30832      607.00.018374992    0.021627487    398.46984     -9.5415004     -13896.303      52.47537       48.655988      53.312084    
     19100   295.09692      0.0191         1.3383511      0.028563975    0.07290667     276.53231      485.63971     -13383.511      52.503529      48.606949      53.317316    
     19200   295.06466      0.0192         1.4186872     -0.046597563    0              689.8878      -55.162845     -14186.872      52.438199      48.662283      53.322547    
     19300   296.61307      0.0193         1.2962226      0.064363573    0.12246466     200.88469      638.19298     -12962.226      52.518024      48.582485      53.327779    
     19400   300.49522      0.0194         1.4071961     -0.04206169     0.011491135    753.03342      18.207382     -14071.961      52.456179      48.653002      53.333011    
     19500   302.23806      0.0195         1.3888703     -0.019806789    0.029816918    333.1904       388.56993     74865    
     20300   300.70329      0.0203         1.385564      -0.0030035132   0.050024475    1024.2064      428.12687     -13855.64       52.455076      48.606907      53.380097    
     20400   300.35215      0.0204         1.3573876      0.020192114    0.078200953    446.82095      792.87596     -13573.876      52.506014      48.550365      53.385329    
     20500   296.99579      0.0205         1.4172368     -0.036820436    0.018351757    757.28082      467.58535     -14172.368      52.491442      48.559476      53.390561    
     20600   299.00624      0.0206         1.4451617     -0.058988806    0              616.01333      88.456169     -14451.617      52.474438      48.584204      53.395793    
     20700   302.11665      0.0207         1.3924078     -0.0011615135   0.052753982   -419.03049      497.63744     -13924.078      52.547487      48.528608      53.401024    
     20800   299.63154      0.0208         1.5286305     -0.11813456     0              84.699259     -660.76626     -15286.305      52.475995      48.611527      53.406256    
     20900   296.55031      0.0209         1.4194124     -0.0094770444   0.10921817    -678.25151      439.68618     -14194.124      52.564414      48.498288      53.411488    
     21000   298.09868      0.021          1.5435104     -0.11556732     0              412.9259      -497.83623     -15435.104      52.458536      48.608789      53.41672     
     21100   303.08936      0.0211         1.4452765     -0.016364623    0.098233905   -403.96436      336.21097     -14452.765      52.561722      48.501676      53.421952    
     21200   304.50785      0.0212         1.5432183     -0.095437712    0.00029206432 -269.00054     -708.07919     -15432.183      52.489663      48.579546      53.427183    
     21300   294.78546      0.0213         1.5058216     -0.046015254    0.037688766   -29.974477     -39.98366      -15058.216      52.502352      48.539597      53.432415    
     21400   299.44335      0.0214         1.5012113     -0.027022613    0.04229903    -429.70103     -271.05212     -15012.113      52.531786      48.526889      53.437647    
     21500   296.12225      0.0215         1.5580391     -0.069770101    0             -225.90621     -616.97827     -15580.391      52.494209      48.579892      53.442879    
     21600   303.16908      0.0216         1.5373715     -0.039881602    0.020667519   -953.46221     -193.56958     -15373.715      52.561767      48.515557      53.448111    
     21700   297.82894      0.0217         1.592059      -0.07460398     0             -227.50168     -841.40947     -15920.59       52.476416      48.585209      53.453342    
     21800   299.0938       0.0218         1.5284014     -0.010969251    0.063657643   -1011.0292     -37.121086     -15284.014      52.561088      48.491012      53.458574    
     21900   301.94907      0.0219         1.5726847     -0.03992528     0.019374386   -348.06868     -703.76289     -15726.847      52.501822      48.564145      53.463806    
     22000   300.32925      0.022          1.556689      -0.022611779    0.035370022   -755.91973     -149.84691     -15566.89       6   -29.974477     -39.98366      -15058.216      52.502352      48.539597      53.432415    
     21400   299.44335      0.0214         1.5012113     -0.027022613    0.04229903    -429.70103     -271.05212     -15012.113      52.531786      48.526889      53.437647    
     21500   296.12225      0.0215         1.5580391     -0.069770101    0             -225.90621     -616.97827     -15580.391      52.494209      48.579892      53.442879    
     21600   303.16908      0.0216         1.5373715     -0.039881602    0.020667519   -953.46221     -193.56958     -15373.715      52.561767      48.515557      53.448111    
     21700   297.82894      0.0217         1.592059      -0.07460398     0             -227.50168     -841.40947     -15920.59       52.476416      48.585209      53.453342    
     21800   299.0938       0.0218         1.5284014     -0.010969251    0.063657643   -1011.0292     -37.121086     -15284.014      52.5610885.66831      0.0226         1.6178832     -0.055910522    0             -254.17261     -615.67808     -16178.832      52.499916      48.523263      53.500429    
     22700   300.4435       0.0227         1.5801893     -0.019403659    0.037693834   -1024.0133     -85.466678     -15801.893      52.576038      48.450454      53.505661    
     22800   298.93477      0.0228         1.6273519     -0.05667115     0             -66.12556      -550.00611     -16273.519      52.495099      48.535588      53.510892    
     22900   297.39205      0.0229         1.5587665      0.010522363    0.068585324   -347.42069      233.22722     -15587.665      52.53556       48.452541      53.516124    
     23000   297.95304      0.023          1.6186321     -0.04314892     0.0087197292   274.87632     -428.32051     -16186.321      52.498498      48.504425      53.521356    
     23100   299.1562       0.0231         1.6119948     -0.033129414    0.015357047   -309.96239     -207.49918     -16119.948      52.539785      48.470072      53.526588    
     23200   299.14126      0.0232         1.6395688     -0.050697014    0             -465.32454     -590.8959      -16395.688      52.523152      48.478676      53.53182     
     23300   298.01754      0.0233         1.645257      -0.045009279    0             -491.41534     -498.17534     -16452.57       52.534681      48.471813      53.537051    
     23400   302.16471      0.0234         1.6241742     -0.017104351    0.021082737   -530.13171      113.44138     -16241.742      52.552422      48.439912      53.542283    
     23500   302.24311      0.0235         1.6349467     -0.019070274    0.010310242    40.109063     -175.16666     -16349.467      52.51322       48.465926      53.547515    
     23600   298.80348      0.0236         1.5639848      0.046501786    0.081272134   -305.10797      792.95322     -15639.848      52.563565      48.403594      53.552747    
     23700   302.14009      0.0237         1.6909489     -0.069386277    0              501.09795     -646.10111     -16909.489      52.469934      48.506707      53.557979    
     23800   300.10056      0.0238         1.6127293      0.0073709994   0.07821953    -519.88294      473.54404     -16127.293      52.569257      48.385846      53.56321     
     23900   300.34009      0.0239         1.6828539     -0.050344798    0.0080950013   561.22631     -212.05123     -16828.539      52.482396      48.474559      53.568442    
     24000   303.41362      0.024          1.6107515      0.020969519    0.080197385    202.38718      585.00408     -16107.515      52.537422      48.406374      53.573674    
     24100   295.49033      0.0241         1.6362617     -0.0021140175   0.054687161    1037.5386      423.14789     -16362.617      52.492058      48.435766      53.578906    
     24200   301.26468      0.0242         1.6076119      0.023340064    0.083336928    300.65218      766.02144     -16076.119      52.547688      48.374967      53.584138    
     24300   300.75162      0.0243         1.636909      -0.0067918167   0.054039844    793.56826      413.88333     -16369.09       52.509093      48.416199 5322     -15639.848      52.563565      48.403594      53.552747    
     23700   302.14009      0.0237         1.6909489     -0.069386277    0              501.09795     -646.10111     -16909.489      52.469934      48.506707      53.557979    
     23800   300.10056      0.0238         1.6127293      0.0073709994   0.07821953    -519.88294      473.54404     -16127.293      52.569257      48.385846      53.56321     
     23900   300.34009      0.0239         1.6828539     -0.050344798    0.0080950013   561.22631     -212.05123     -16828.539      52.482396      48.474559      53.568442    
     24000   303.41362      0.024          1.6107515      0.020969519    0.080197385    202.38718      585.00408     -16107.515      52.537422      48.406374      53.573674    
     24100   295.49033      0.0241         1.6362617     -0.0021140175   0.054687161    1037.5386      423.14789     -16362.617      52.492058      48.435766      53.5   1.6181693      0.0089603367   0.076869272    448.15592      775.58249     -16181.693      52.550524      48.346748      53.62076     
     25000   299.74538      0.025          1.667255      -0.034474985    0.027783601    870.30969      304.9528      -16672.55       52.496432      48.407263      53.625992    
     25100   305.47676      0.0251         1.6711917     -0.034918732    0.023846853    27.489893      211.79141     -16711.917      52.548071      48.378081      53.631224    
     25200   298.30338      0.0252         1.6700035     -0.027491331    0.025035101   -328.1341       256.64774     -16700.035      52.555197      48.360217      53.636456    
     25300   299.97973      0.0253         1.7830754     -0.12594663     0             -235.41432     -764.80591     -17830.754      52.502541      48.431302      53.641687    
     25400   302.48671      0.0254         1.6723301     -0.0090941268   0.1107453     -547.083        137.24662     -16723.301      52.580858      48.338315      53.646919    
     25500   296.04921      0.0255         1.7516048     -0.072288144    0.031470597    11.684715     -285.62177     -17516.048      52.52657       48.391184      53.652151    
     25600   298.54977      0.0256         1.7544172     -0.069162643    0.028658238   -390.69593     -87.039817     -17544.172      52.560211      48.35053       53.657383    
     25700   299.70923      0.0257         1.7283844     -0.029887457    0.054690967   -124.77621      56.889442     -17283.844      52.547634      48.368589      53.662615    
     25800   298.97894      0.0258         1.7531682     -0.046208285    0.029907159    299.80018     -117.18935     -17531.682      52.523225      48.375015      53.667846    
     25900   300.19052      0.0259         1.7297724     -0.01165212     0.053303014   -102.3881       218.27058     -17297.724      52.551046      48.332642      53.673078    
     26000   306.62191      0.026          1.7739353     -0.04514702     0.0091400778  -42.93061      -142.98237     -17739.353      52.529722      48.371049      53.67831     
     26100   300.2267       0.0261         1.7488449     -0.012291317    0.034230458    23.183076      97.631139     -17488.449      52.527993      48.357652      53.683542    
     26200   298.33276      0.0262         1.7717799     -0.025048593    0.011295542   -615.28374      69.66396      -17717.799      52.564422      48.325646      53.688774    
     26300   300.20287      0.0263         1.8217273     -0.071130851    0             -484.00527     -581.10704     -18217.273      52.552243      48.35713       53.694005    
     26400   294.92217      0.0264         1.7844588     -0.022649482    0.037268499   -646.35855     -310.58198     -17844.588      52.57023       48.336339      53.699237    
     26500   300.7888       0.0265         1.8284119     -0.05892184     0             -926.08383     -688.08638     -18284.119      52.570094      48.33828       53.704469    
     26600   298.42027      0.0266         1.8153333     -0.039751627    0.013078602   -602.86297     -569.32715     -18153.333      52.55222       48.347132      53.709701    
     252.551046      48.332642      53.673078    
     26000   306.62191      0.026          1.7739353     -0.04514702     0.0091400778  -42.93061      -142.98237     -17739.353      52.529722      48.371049      53.67831     
     26100   300.2267       0.0261         1.7488449     -0.012291317    0.034230458    23.183076      97.631139     -17488.449      52.527993      48.357652      53.683542    
     26200   298.33276      0.0262         1.7717799     -0.025048593    0.011295542   -615.28374      69.66396      -17717.799      52.564422      48.325646      53.688774    
     26300   300.20287      0.0263         1.8217273     -0.071130851    0             -484.00527     -581.10704     -18217.273      52.552243      48.35713       53.694005    
     26400   294.92217      0.0264         1.7844588     -0.022649482    0.037268499   -646.35855     -310.58198     -17844.588      52.57023       48.336339      53.699237    
     26500   309693    0.049282796    570.41602      545.57296     -17791.291      52.547629      48.27915       53.741092    
     27300   306.43793      0.0273         1.7777471      0.017193693    0.050664822    714.10029      600.73444     -17777.471      52.537057      48.284821      53.746324    
     27400   302.35807      0.0274         1.7615808      0.031072178    0.066831111    1374.6019      873.20951     -17615.808      52.523823      48.275016      53.751555    
     27500   300.60125      0.0275         1.7222313      0.059803538    0.10618052     1558.041       1235.838      -17222.313      52.524777      48.244313      53.756787    
     27600   306.19522      0.0276         1.7641714      0.01274732     0.064240495    1620.305       1040.1028     -17641.714      52.490706      48.286854      53.762019    
     27700   301.34777      0.0277         1.7465759      0.026878205    0.08183594     1758.2988      1397.5717     -17465.759      52.506934      48.260842      53.767251    
     27800   299.98667      0.0278         1.7294452      0.037616838    0.098966704    1474.2884      1612.3771     -17294.452      52.527126      48.231088      53.772483    
     27900   297.20587      0.0279         1.7788082     -0.010533769    0.049603626    1656.6636      821.68107     -17788.082      52.510557      48.263555      53.777714    
     28000   297.05382      0.028          1.6883794      0.067479834    0.14003245     967.00326      1372.9308     -16883.794      52.57781       48.203321      53.782946    
     28100   299.41656      0.0281         1.8174711     -0.060917123    0.010940804    1277.8618      394.50541     -18174.711      52.496761      48.282442      53.788178    
     28200   298.40314      0.0282         1.7857634     -0.028546006    0.042648491    437.34205      655.6386      -17857.634      52.55756       48.226814      53.79341     
     28300   308.41994      0.0283         1.8710458     -0.10449854     0             -63.898062     -33.35252      -18710.458      52.568817      48.246737      53.798642    
     28400   299.07447      0.0284         1.8445783     -0.069731308    0.026467475    378.24587      189.61134     -18445.783      52.546002      48.258241      53.803873    
     28500   299.36472      0.0285         1.854952      -0.06683296     0.016093754   -240.23935      148.56226     -18549.52       52.584315      48.209008      53.809105    
     28600   297.94938      0.0286         1.8869951     -0.08659366     0              452.77527      149.47765     -18869.951      52.53914       48.261704      53.814337    
     28700   299.5227       0.0287         1.8379671     -0.028426515    0.04902803     237.2181       336.18629     -18379.671      52.569283      48.223725      53.819569    
     28800   302.48762      0.0288         1.9034526     -0.076511253    0              96.231848     -196.79665     -19034.526      52.543192      48.252354      53.824801    
     28900   297.283        0.0289         1.8925134     -0.054201596    0.010939141    348.90141     -28.116154     -18925.134      52.554152      48.233038      53.830032    
     29000   297.30242      0.0     53.79341     
     28300   308.41994      0.0283         1.8710458     -0.10449854     0             -63.898062     -33.35252      -18710.458      52.568817      48.246737      53.798642    
     28400   299.07447      0.0284         1.8445783     -0.069731308    0.026467475    378.24587      189.61134     -18445.783      52.546002      48.258241      53.803873    
     28500   299.36472      0.0285         1.854952      -0.06683296     0.016093754   -240.23935      148.56226     -18549.52       52.584315      48.209008      53.809105    
     28600   297.94938      0.0286         1.8869951     -0.08659366     0              452.77527      149.47765     -18869.951      52.53914       48.261704      53.814337    
     28700   299.5227       0.0287         1.8379671     -0.028426515    0.04902803     237.2181       336.18629     -18379.671      52.569283      48.223725      53.819569    
     28800   302.48762      0.0288      0.15536      67.29002      -19180.141      52.573597      48.194149      53.861423    
     29600   292.80558      0.0296         1.93154       -0.017026987    0.055311308    153.11391      113.43254     -19315.4        52.537543      48.21681       53.866655    
     29700   299.34397      0.0297         1.9363725     -0.012018947    0.050478809   -171.572        265.78296     -19363.725      52.596158      48.169036      53.871887    
     29800   298.73074      0.0298         1.9104947      0.014563075    0.076356619    144.92026      235.24736     -19104.947      52.56061       48.197577      53.877119    
     29900   297.63032      0.0299         1.9471157     -0.016597759    0.039735553    575.23979      79.668884     -19471.157      52.534252      48.197389      53.88235     
     30000   302.80153      0.03           1.9174681      0.019139942    0.069383227   -23.492441      461.15989     -19174.681      52.594356      48.134549      53.887582    
     30100   299.12871      0.0301         1.9747764     -0.034455571    0.012074848    1225.7759      267.9338      -19747.764      52.505596      48.223846      53.892814    
     30200   304.07376      0.0302         1.8762985      0.059119131    0.11055282     707.65417      1028.923      -18762.985      52.582544      48.13438       53.898046    
     30300   302.03109      0.0303         1.9403845     -0.0096135879   0.046466781    1386.505       595.93183     -19403.845      52.512927      48.176427      53.903278    
     30400   299.20321      0.0304         1.8910449      0.033306042    0.095806392    1483.3276      1246.0596     -18910.449      52.540592      48.139949      53.908509    
     30500   303.43715      0.0305         1.8942053      0.027764775    0.092646012    894.02476      855.71497     -18942.053      52.581955      48.119448      53.913741    
     30600   302.23808      0.0306         1.9696306     -0.043851518    0.017220653    964.88566      117.4675      -19696.306      52.529801      48.184662      53.918973    
     30700   296.36092      0.0307         1.9274028     -0.0025206811   0.059448455    273.46577      632.38888     -19274.028      52.598106      48.104811      53.924205    
     30800   300.78676      0.0308         1.9646299     -0.03433419     0.022221427    462.6067       199.33565     -19646.299      52.565685      48.147086      53.929437    
     30900   296.27146      0.0309         1.972372      -0.039550712    0.014479278    139.1175       331.89843     -19723.72       52.574648      48.129603      53.934668    
     31000   298.77268      0.031          1.9939368     -0.053468658    0             -44.998766      165.41862     -19939.368      52.572945      48.141988      53.9399      
     31100   297.08229      0.0311         1.9948327     -0.052358867    0             -35.513974     -63.944574     -19948.327      52.58398       48.144252      53.945132    
     31200   301.00682      0.0312         2.0168255     -0.060298993    0             -637.03331     -109.45661     -20168.255      52.6134        48.121662      53.950364    
     31300   301.10361      0.0313         2.094697     0600   302.23808      0.0306         1.9696306     -0.043851518    0.017220653    964.88566      117.4675      -19696.306      52.529801      48.184662      53.918973    
     30700   296.36092      0.0307         1.9274028     -0.0025206811   0.059448455    273.46577      632.38888     -19274.028      52.598106      48.104811      53.924205    
     30800   300.78676      0.0308         1.9646299     -0.03433419     0.022221427    462.6067       199.33565     -19646.299      52.565685      48.147086      53.929437    
     30900   296.27146      0.0309         1.972372      -0.039550712    0.014479278    139.1175       331.89843     -19723.72       52.574648      48.129603      53.934668    
     31000   298.77268      0.031          1.9939368     -0.053468658    0             -44.998766      165.41862     -19939.368      52.572945      48.141988      53.9399      
     31100   297.08229      0.0311         1.9948327     -0.05235  -20058.832      52.604325      48.096166      53.981755    
     31900   302.19541      0.0319         2.0223268      0.0079924964   0.072370179    394.06465      110.17474     -20223.268      52.569333      48.117662      53.986987    
     32000   301.47936      0.032          2.0161503      0.016390374    0.078546712    438.50184      333.96119     -20161.503      52.587795      48.076615      53.992218    
     32100   305.14939      0.0321         2.0316357      0.0045852714   0.063061307    713.02397      143.05739     -20316.357      52.57306       48.083677      53.99745     
     32200   307.94131      0.0322         1.992166       0.041588977    0.10253096     533.17114      629.6682      -19921.66       52.579297      48.079551      54.002682    
     32300   300.39063      0.0323         1.9976842      0.026369499    0.097012755    910.69207      563.14587     -19976.842      52.557293      48.084672      54.007914    
     32400   296.68699      0.0324         2.0084576      0.01263042     0.086239432    604.92579      578.73462     -20084.576      52.588522      48.055627      54.013146    
     32500   305.4355       0.0325         2.0209539     -0.0057523154   0.073743133    422.58285      185.64427     -20209.539      52.588091      48.073173      54.018377    
     32600   303.39593      0.0326         2.0463048     -0.029189048    0.048392162    488.47336      163.49259     -20463.048      52.577076      48.073585      54.023609    
     32700   300.54339      0.0327         2.0173426     -0.0014520867   0.077354393    319.68843      476.06233     -20173.426      52.601502      48.034945      54.028841    
     32800   298.86587      0.0328         2.0605464     -0.03918956     0.034150603    580.39522      156.13962     -20605.464      52.562991      48.077842      54.034073    
     32900   301.04468      0.0329         2.053725      -0.029228342    0.040972004    114.52106      345.61207     -20537.25       52.608316      48.042992      54.039305    
     33000   299.83393      0.033          2.0719997     -0.041918132    0.02269727     21.347348     -111.97194     -20719.997      52.593626      48.061779      54.044536    
     33100   300.50639      0.0331         2.0749151     -0.040505524    0.019781941   -314.35836      123.55909     -20749.151      52.616394      48.027718      54.049768    
     33200   300.31878      0.0332         2.1381513     -0.089143223    0             -401.74973     -729.66498     -21381.513      52.602242      48.069774      54.055       
     33300   300.85642      0.0333         2.098577      -0.039479627    0.039574325   -874.79772     -283.9869      -20985.77       52.663592      48.019049      54.060232    
     33400   296.76372      0.0334         2.1388718     -0.066733029    0             -904.94661     -780.64736     -21388.718      52.612284      48.056182      54.065464    
     33500   300.52242      0.0335         2.1738614     -0.086431887    0             -1482.4107     -1184.6851     -21738.614      52.653506      48.04105       54.070695    
     33600   298.06507      0.0336         2.1290161     -0.033315517    0.044845329         2.053725      -0.029228342    0.040972004    114.52106      345.61207     -20537.25       52.608316      48.042992      54.039305    
     33000   299.83393      0.033          2.0719997     -0.041918132    0.02269727     21.347348     -111.97194     -20719.997      52.593626      48.061779      54.044536    
     33100   300.50639      0.0331         2.0749151     -0.040505524    0.019781941   -314.35836      123.55909     -20749.151      52.616394      48.027718      54.049768    
     33200   300.31878      0.0332         2.1381513     -0.089143223    0             -401.74973     -729.66498     -21381.513      52.602242      48.069774      54.055       
     33300   300.85642      0.0333         2.098577      -0.039479627    0.039574325   -874.79772     -283.9869      -20985.77       52.663592      48.019049      54.060232    
     33400   296.76372      0.0334         2.1388718     -0.066733029    0             -9003      48.030222      54.102086    
     34200   299.02061      0.0342         2.1269192      0.014686168    0.074545965   -577.74971      322.26393     -21269.192      52.639254      47.954252      54.107318    
     34300   302.1302       0.0343         2.1649954     -0.016748128    0.036469826    250.51157     -182.54136     -21649.954      52.600702      48.005261      54.11255     
     34400   296.91293      0.0344         2.076827       0.065215803    0.12463824     137.69033      824.178       -20768.27       52.643173      47.946089      54.117782    
     34500   298.93431      0.0345         2.1601279     -0.019458476    0.041337309    522.27875     -155.59285     -21601.279      52.570011      48.008829      54.123013    
     34600   300.87664      0.0346         2.1073463      0.031156141    0.09411891     323.5774       633.67413     -21073.463      52.628656      47.943939      54.128245    
     34700   298.77575      0.0347         2.1014657      0.027036813    0.099999537    770.93252      840.78912     -21014.657      52.617892      47.946073      54.133477    
     34800   303.28091      0.0348         2.1487346     -0.015187099    0.052730575    875.82911      130.34159     -21487.346      52.556495      48.003206      54.138709    
     34900   296.79304      0.0349         2.0914986      0.033588855    0.10996658     525.26665      1062.9029     -20914.986      52.622959      47.918406      54.143941    
     35000   301.76533      0.035          2.1620382     -0.032944047    0.039427007    973.62899      348.85702     -21620.382      52.574786      47.986124      54.149172    
     35100   299.35944      0.0351         2.1091657      0.015746162    0.092299508    346.53338      963.77712     -21091.657      52.638882      47.908442      54.154404    
     35200   300.10508      0.0352         2.1984976     -0.066427879    0.0029676334   921.14513      89.97897      -21984.976      52.546911      48.008419      54.159636    
     35300   302.25829      0.0353         2.1147809      0.012267332    0.086684292    573.55663      659.32919     -21147.809      52.624227      47.925265      54.164868    
     35400   299.65729      0.0354         2.1334457     -0.0007355886   0.068019497    631.91658      657.88917     -21334.457      52.620915      47.923179      54.1701      
     35500   300.15233      0.0355         2.2010757     -0.064270768    0.00038953984  784.7763      -55.388407     -22010.757      52.561443      47.979823      54.175331    
     35600   302.10364      0.0356         2.1064258      0.030287047    0.095039404    38.070949      881.5613      -21064.258      52.672884      47.871816      54.180563    
     35700   303.50924      0.0357         2.2580453     -0.10567446     0              268.73969     -719.39457     -22580.453      52.573809      47.991576      54.185795    
     35800   300.39085      0.0358         2.1268923      0.023294294    0.13115299    -619.38103      655.89538     -21268.923      52.671557      47.865033      54.191027    
     35900   302.14426      0.0359         2.2245193     -0.061030705    0.033525916    230.82915     -720 -0.066427879    0.0029676334   921.14513      89.97897      -21984.976      52.546911      48.008419      54.159636    
     35300   302.25829      0.0353         2.1147809      0.012267332    0.086684292    573.55663      659.32919     -21147.809      52.624227      47.925265      54.164868    
     35400   299.65729      0.0354         2.1334457     -0.0007355886   0.068019497    631.91658      657.88917     -21334.457      52.620915      47.923179      54.1701      
     35500   300.15233      0.0355         2.2010757     -0.064270768    0.00038953984  784.7763      -55.388407     -22010.757      52.561443      47.979823      54.175331    
     35600   302.10364      0.0356         2.1064258      0.030287047    0.095039404    38.070949      881.5613      -21064.258      52.672884      47.871816      54.180563    
     35700   303.50924      0.0357         2.2580453     -0.10567446     0              268.73969     -719.39457   .222418    
     36500   299.70627      0.0365         2.2151577     -0.018452757    0.071728452   -1001.3767     -258.02827     -22151.577      52.685805      47.863194      54.22765     
     36600   300.65317      0.0366         2.2786586     -0.064730329    0.0082275999  -562.20598     -1068.9981     -22786.586      52.60276       47.973195      54.232881    
     36700   297.05544      0.0367         2.2363521     -0.024593177    0.050534065   -1181.6932     -534.07811     -22363.521      52.683064      47.873499      54.238113    
     36800   298.78015      0.0368         2.2830318     -0.055658925    0.0038543615  -1342.5083     -1046.1161     -22830.318      52.65797       47.907229      54.243345    
     36900   304.72674      0.0369         2.322983      -0.085763747    0             -915.67147     -1326.8633     -23229.83       52.631002      47.942266      54.248577    
     37000   297.80967      0.037          2.251599      -0.0032287615   0.071383995   -1177.7947     -404.73356     -22515.99       52.69448       47.84446       54.253809    
     37100   300.90701      0.0371         2.3266952     -0.068308351    0             -609.94321     -1312.8043     -23266.952      52.624965      47.922895      54.25904     
     37200   300.59279      0.0372         2.2235961      0.034877477    0.103099      -1289.112      -307.99332     -22235.961      52.698289      47.840708      54.264272    
     37300   303.77414      0.0373         2.3332696     -0.057446644    0             -1172.4894     -1108.2815     -23332.696      52.653109      47.887462      54.269504    
     37400   297.98517      0.0374         2.3356067     -0.054911738    0             -1196.3511     -1180.2687     -23356.067      52.651524      47.89093       54.274736    
     37500   301.55509      0.0375         2.3138407     -0.023277414    0.021766027   -1612.0568     -1075.4492     -23138.407      52.699894      47.851248      54.279968    
     37600   302.29897      0.0376         2.3171795     -0.022764127    0.018427222   -1071.3991     -1063.8582     -23171.795      52.65896       47.886831      54.285199    
     37700   300.49865      0.0377         2.3038647     -0.0026980384   0.031742056   -1174.0961     -1051.9324     -23038.647      52.673952      47.868778      54.290431    
     37800   295.9182       0.0378         2.272707       0.027427195    0.062899777   -1241.9221     -609.75403     -22727.07       52.695109      47.821639      54.295663    
     37900   301.66977      0.0379         2.3388412     -0.037121243    0             -801.19832     -1282.9922     -23388.412      52.632583      47.889152      54.300895    
[...]
     58900 22507349    0.12392474     1038.0751      251.30961     -27585.648      52.836426      46.846291      55.436196    
     59700   302.64471      0.0597         2.7234399      0.052193727    0.15904969     93.052728      700.96594     -27234.399      52.919987      46.770086      55.441428    
     59800   302.61671      0.0598         2.7888874     -0.016659035    0.093602173    641.97746      129.13845     -27888.874      52.853518      46.838368      55.44666     
     59900   299.91433      0.0599         2.7438876      0.018084779    0.13860192     469.05103      486.68294     -27438.876      52.876254      46.788915      55.451892    
     60000   297.88923      0.06           2.6657211      0.088515332    0.21676848     251.38584      1164.793      -26657.211      52.948678      46.723242      55.457123    
     60100   297.36647      0.0601         2.8295981     -0.073012712    0.052891455    918.30644     -388.95915     -28295.981      52.806419      46.88796       55.462355    
     60200   294.59434      0.0602         2.7306866      0.025303158    0.15180292    -134.39194      519.74081     -27306.866      52.931367      46.74591       55.467587    
     60300   304.0506       0.0603         2.8264696     -0.064970073    0.056019939   -746.05875     -291.15248     -28264.696      52.913281      46.805941      55.472819    
     60400   301.13739      0.0604         2.8409413     -0.077870032    0.041548251   -473.10642     -978.29226     -28409.413      52.876427      46.839411      55.478051    
     60500   300.18523      0.0605         2.7323094      0.031741189    0.15018016    -1128.8714      50.292369     -27323.094      52.98536       46.712653      55.483282    
     60600   304.88837      0.0606         2.8880719     -0.11107061     0             -415.2593      -1226.752      -28880.719      52.870995      46.860099      55.488514    
     60700   297.66812      0.0607         2.7607364      0.019994506    0.12733546    -362.8527      -0.22981402    -27607.364      52.938041      46.743852      55.493746    
     60800   301.67404      0.0608         2.7866224     -0.0061179104   0.10144955    -237.71911     -4.9625225     -27866.224      52.931795      46.736796      55.498978    
     60900   300.58028      0.0609         2.8275611     -0.038689329    0.060510778    313.12761     -520.80994     -28275.611      52.850763      46.818871      55.50421     
     61000   299.0391       0.061          2.7335661      0.062090199    0.1545058      21.761219      435.07343     -27335.661      52.934555      46.724517      55.509442    
     61100   297.8616       0.0611         2.8297865     -0.034111392    0.05828537     165.62511     -349.49184     -28297.865      52.867338      46.794407      55.514673    
     61200   299.56585      0.0612         2.7334789      0.062475423    0.15459295     143.82615      343.3442      -27334.789      52.930817      46.711773      55.519905    
     61300   300.32993      0.0613         2.75446        0.034293393    0.13361188    -253.71676      225.3782      -27544.6        52.937132      46.710275      55.525137    
     61400   294.48645     099      55.488514    
     60700   297.66812      0.0607         2.7607364      0.019994506    0.12733546    -362.8527      -0.22981402    -27607.364      52.938041      46.743852      55.493746    
     60800   301.67404      0.0608         2.7866224     -0.0061179104   0.10144955    -237.71911     -4.9625225     -27866.224      52.931795      46.736796      55.498978    
     60900   300.58028      0.0609         2.8275611     -0.038689329    0.060510778    313.12761     -520.80994     -28275.611      52.850763      46.818871      55.50421     
     61000   299.0391       0.061          2.7335661      0.062090199    0.1545058      21.761219      435.07343     -27335.661      52.934555      46.724517      55.509442    
     61100   297.8616       0.0611         2.8297865     -0.034111392    0.05828537     165.62511     -349.49184     -28297.865      52.867338      46.794407      55.514673    
     61200   299.56585      0.0612    5.3835736     -521.65622     -28666.131      52.875285      46.766531      55.556528    
     62000   293.70712      0.062          2.8039169     -0.01106441     0.084155019   -482.41774     -125.07528     -28039.169      52.923998      46.706024      55.56176     
     62100   300.93496      0.0621         2.7309047      0.052059613    0.15716723    -813.99663     -149.63906     -27309.047      52.981693      46.655113      55.566991    
     62200   301.51143      0.0622         2.8939577     -0.09494558     0             -14.405734     -1195.008      -28939.577      52.86205       46.791378      55.572223    
     62300   297.53074      0.0623         2.7255835      0.070541041    0.16837428    -637.42202      122.43179     -27255.835      52.984556      46.619582      55.577455    
     62400   295.36312      0.0624         2.7939098     -0.0057004402   0.10004799     289.10681      260.94638     -27939.098      52.920698      46.682449      55.582687    
     62500   300.07499      0.0625         2.8420959     -0.039932406    0.051861834    662.13118     -196.9559      -28420.959      52.85215       46.752475      55.587919    
     62600   297.80461      0.0626         2.7010057      0.085607986    0.19295204    -64.782744      1047.4391     -27010.057      53.014365      46.576803      55.59315     
     62700   299.28369      0.0627         2.8083214     -0.022116743    0.085636393    438.01755     -48.941542     -28083.214      52.901875      46.698893      55.598382    
     62800   296.5901       0.0628         2.8432903     -0.04233045     0.050667405    75.356035     -173.05395     -28432.903      52.909413      46.686274      55.603614    
     62900   301.18072      0.0629         2.7888899      0.0042976982   0.10506787    -491.85015     -95.538703     -27888.899      52.975984      46.627771      55.608846    
     63000   302.60241      0.063          2.8443757     -0.047142214    0.049582083    70.515627     -430.82133     -28443.757      52.915688      46.683903      55.614078    
     63100   302.42342      0.0631         2.8116211     -0.006316003    0.082336652   -202.10483     -185.03144     -28116.211      52.954378      46.626151      55.619309    
     63200   300.01172      0.0632         2.7717889      0.021299284    0.12216882     416.68118      33.543696     -27717.889      52.915915      46.645853      55.624541    
     63300   300.37139      0.0633         2.7814125      0.017258602    0.11254523     513.89978      185.08215     -27814.125      52.926837      46.648041      55.629773    
     63400   299.41349      0.0634         2.7146691      0.076077949    0.17928865     207.25434      864.688       -27146.691      52.972479      46.57993       55.635005    
     63500   302.40979      0.0635         2.8614457     -0.068763643    0.03251208     769.03198     -102.47596     -28614.457      52.881081      46.679283      55.640237    
     63600   301.05182      0.0636         2.7448841      0.052185721    0.1490736      193.92632      542.84985     -27448.841      52.971961      46.570302      55.645468    
     63700   300.1578       0.0637         2.7947283   63000   302.60241      0.063          2.8443757     -0.047142214    0.049582083    70.515627     -430.82133     -28443.757      52.915688      46.683903      55.614078    
     63100   302.42342      0.0631         2.8116211     -0.006316003    0.082336652   -202.10483     -185.03144     -28116.211      52.954378      46.626151      55.619309    
     63200   300.01172      0.0632         2.7717889      0.021299284    0.12216882     416.68118      33.543696     -27717.889      52.915915      46.645853      55.624541    
     63300   300.37139      0.0633         2.7814125      0.017258602    0.11254523     513.89978      185.08215     -27814.125      52.926837      46.648041      55.629773    
     63400   299.41349      0.0634         2.7146691      0.076077949    0.17928865     207.25434      864.688       -27146.691      52.972479      46.57993       55.635005    
     63500   302.40979      0.0635         2.8614457     -0.02     -29137.535      52.970388      46.646565      55.676859    
     64300   299.70294      0.0643         2.9026719     -0.080088888    0.011081632   -1213.7796     -1010.166      -29026.719      52.970699      46.623256      55.682091    
     64400   295.60846      0.0644         2.7869017      0.042904582    0.12685184    -1484.241      -97.639594     -27869.017      53.045282      46.522415      55.687323    
     64500   299.28081      0.0645         2.8800441     -0.048377952    0.033709471   -524.69375     -1310.3225     -28800.441      52.913181      46.675298      55.692555    
     64600   292.23632      0.0646         2.7828878      0.052578637    0.13086569    -994.49849     -131.26948     -27828.878      53.027471      46.53088       55.697786    
     64700   300.72777      0.0647         2.8671961     -0.024482872    0.046557402   -848.25668     -721.00125     -28671.961      52.982112      46.572891      55.703018    
     64800   304.05029      0.0648         2.8711389     -0.025147303    0.042614578   -514.86446     -640.19147     -28711.389      52.944377      46.613679      55.70825     
     64900   296.40645      0.0649         2.7809928      0.067844175    0.1327607     -470.86739      132.01223     -27809.928      53.010076      46.516487      55.713482    
     65000   298.54013      0.065          2.8468398     -0.00016831484  0.066913721    63.515482     -122.71187     -28468.398      52.95629       46.557977      55.718714    
     65100   301.33257      0.0651         2.8062487      0.037618865    0.10750485     560.48553      97.904884     -28062.487      52.928318      46.577659      55.723945    
     65200   297.21128      0.0652         2.7193336      0.10509197     0.19441996     389.87484      866.75105     -27193.336      52.983409      46.492755      55.729177    
     65300   299.24773      0.0653         2.8104801      0.0047262844   0.10327345     670.64576      179.21584     -28104.801      52.924988      46.539752      55.734409    
     65400   301.43579      0.0654         2.7687837      0.044610894    0.14496986     608.31461      401.52127     -27687.837      52.963969      46.501682      55.739641    
     65500   302.13503      0.0655         2.669317       0.12300486     0.24443653     689.28117      1108.1325     -26693.17       52.999013      46.456852      55.744873    
     65600   304.39037      0.0656         2.7860312      0.0066049894   0.12772233     1011.8644      277.06491     -27860.312      52.915628      46.545877      55.750104    
     65700   301.04997      0.0657         2.7501202      0.030808436    0.16363337     918.61693      663.2696      -27501.202      52.930902      46.504811      55.755336    
     65800   299.14768      0.0658         2.6700141      0.090801987    0.24373941     991.55385      954.68033     -26700.141      52.976021      46.466649      55.760568    
     65900   296.8672       0.0659         2.708565       0.045008339    0.20518854     1347.8713      712.06029     -27085.65       52.940279      46.499642      55.7658      
     66000   295.01941      0.066          2.7506436     -0.0066898942   0.16 0.0653         2.8104801      0.0047262844   0.10327345     670.64576      179.21584     -28104.801      52.924988      46.539752      55.734409    
     65400   301.43579      0.0654         2.7687837      0.044610894    0.14496986     608.31461      401.52127     -27687.837      52.963969      46.501682      55.739641    
     65500   302.13503      0.0655         2.669317       0.12300486     0.24443653     689.28117      1108.1325     -26693.17       52.999013      46.456852      55.744873    
     65600   304.39037      0.0656         2.7860312      0.0066049894   0.12772233     1011.8644      277.06491     -27860.312      52.915628      46.545877      55.750104    
     65700   301.04997      0.0657         2.7501202      0.030808436    0.16363337     918.61693      663.2696      -27501.202      52.930902      46.504811      55.755336    
     65800   299.14768      0.0658         2.6700141      0.090801987    0.24373941   950139      46.527035      55.797191    
     66600   296.92361      0.0666         2.7592379      0.013442379    0.15451562    -429.1326       363.66114     -27592.379      53.043833      46.411377      55.802423    
     66700   297.75204      0.0667         2.8620953     -0.078217542    0.051658185   -44.462048     -106.96808     -28620.953      52.983324      46.483839      55.807654    
     66800   303.03427      0.0668         2.8803733     -0.075459565    0.033380246   -173.69205     -532.10168     -28803.733      52.962674      46.510262      55.812886    
     66900   296.27926      0.0669         2.7658195      0.044819669    0.14793403    -380.02292      253.78154     -27658.195      53.051263      46.398986      55.818118    
     67000   298.77032      0.067          2.8738158     -0.050859438    0.039937699    80.693605     -238.68047     -28738.158      52.966351      46.479493      55.82335     
     67100   302.69132      0.0671         2.8703915     -0.038454329    0.04336206    -161.12199     -594.82692     -28703.915      52.97473       46.495334      55.828582    
     67200   297.62693      0.0672         2.7931067      0.034120981    0.1206468     -668.45666     -10.576711     -27931.067      53.065216      46.389073      55.833813    
     67300   301.0588       0.0673         2.9352706     -0.089798049    0             -776.97544     -795.90676     -29352.706      52.978649      46.494062      55.839045    
     67400   298.93197      0.0674         2.909757      -0.057654697    0.025513586   -507.48754     -526.4819      -29097.57       52.991941      46.469323      55.844277    
     67500   299.86456      0.0675         2.8475337      0.0022064539   0.087736925   -831.06689     -204.94813     -28475.337      53.041043      46.397793      55.849509    
     67600   300.81114      0.0676         2.8816387     -0.01965849     0.053631901   -44.701581     -351.62103     -28816.387      52.967093      46.475231      55.854741    
     67700   299.12033      0.0677         2.8195784      0.038150105    0.11569219     191.7984       207.6002      -28195.784      52.994929      46.422239      55.859972    
     67800   298.60488      0.0678         2.7482095      0.096302646    0.18706111     151.09489      567.40147     -27482.095      53.019327      46.370413      55.865204    
     67900   303.4666       0.0679         2.8367725      0.014834906    0.098498063    488.34507      150.02685     -28367.725      52.947857      46.450626      55.870436    
     68000   306.54456      0.068          2.7021301      0.13230879     0.23314052     346.49305      567.73441     -27021.301      53.001818      46.385045      55.875668    
     68100   304.57102      0.0681         2.6303078      0.18012268     0.30496278     464.06233      705.4617      -26303.078      53.021982      46.330589      55.8809      
     68200   298.9329       0.0682         2.5858483      0.20385633     0.34942226     1006.279       213.63541     -25858.483      52.890788      46.428196      55.886131    
     68300   301.77208      0.0683         2.4281012      0.31088652     0.50716939     769.07716          -0.01965849     0.053631901   -44.701581     -351.62103     -28816.387      52.967093      46.475231      55.854741    
     67700   299.12033      0.0677         2.8195784      0.038150105    0.11569219     191.7984       207.6002      -28195.784      52.994929      46.422239      55.859972    
     67800   298.60488      0.0678         2.7482095      0.096302646    0.18706111     151.09489      567.40147     -27482.095      53.019327      46.370413      55.865204    
     67900   303.4666       0.0679         2.8367725      0.014834906    0.098498063    488.34507      150.02685     -28367.725      52.947857      46.450626      55.870436    
     68000   306.54456      0.068          2.7021301      0.13230879     0.23314052     346.49305      567.73441     -27021.301      53.001818      46.385045      55.875668    
     68100   304.57102      0.0681         2.6303078      0.18012268     0.30496278     464.06233      705.4617  55.917522    
     68900   302.60665      0.0689         1.7086082      0.53420158     1.2266624      411.15912      540.01669     -17086.082      52.515736      46.452389      55.922754    
     69000   302.11046      0.069          1.5267355      0.59853489     1.4085352      758.16543      320.86064     -15267.355      52.475048      46.442942      55.927986    
     69100   301.96974      0.0691         1.2909102      0.70042043     1.6443605      239.72426      427.97235     -12909.102      52.477823      46.394484      55.933218    
     69200   299.11078      0.0692         1.0725715      0.76743142     1.8626991      793.57274      245.03991     -10725.715      52.43283       46.380825      55.938449    
Fix halt condition for fix-id halt_peak_fix met on step 69300 with value 1
     69300   311.02549      0.0693         0.76609921     0.90770348     2.1691714     -165.80736      854.06898     -7660.9921      52.439237      46.281748      55.943681    
Loop time of 59.8533 on 1 procs for 69300 steps with 7776 atoms

Performance: 200.073 ns/day, 0.120 hours/ns, 1157.830 timesteps/s, 9.003 Matom-step/s
99.4% CPU use with 1 MPI tasks x 1 OpenMP threads

MPI task timing breakdown:
Section |  min time  |  avg time  |  max time  |%varavg| %total
---------------------------------------------------------------
Pair    | 26.268     | 26.268     | 26.268     |   0.0 | 43.89
Neigh   | 0.014124   | 0.014124   | 0.014124   |   0.0 |  0.02
Comm    | 2.3953     | 2.3953     | 2.3953     |   0.0 |  4.00
Output  | 11.053     | 11.053     | 11.053     |   0.0 | 18.47
Modify  | 18.788     | 18.788     | 18.788     |   0.0 | 31.39
Other   |            | 1.336      |            |       |  2.23

Nlocal:           7776 ave        7776 max        7776 min
Histogram: 1 0 0 0 0 0 0 0 0 0
Nghost:           9213 ave        9213 max        9213 min
Histogram: 1 0 0 0 0 0 0 0 0 0
Neighs:              0 ave           0 max           0 min
Histogram: 1 0 0 0 0 0 0 0 0 0
FullNghs:       745669 ave      745669 max      745669 min
Histogram: 1 0 0 0 0 0 0 0 0 0

Total # of neighbors = 745669
Ave neighs/atom = 95.893647
Neighbor list builds = 72
Dangerous builds = 0


---------------------------------------------------------------------
      Device Time Info (average): 
---------------------------------------------------------------------
Data Transfer:   6.5069 s.
Neighbor copy:   0.0015 s.
Neighbor build:  0.0077 s.
Force calc:      12.4512 s.
Device Overhead: 1.7260 s.
CPU Neighbor:    0.0123 s.
CPU Cast/Pack:   6.0086 s.
CPU Driver_Time: 1.4742 s.
CPU Idle_Time:   12.2012 s.
Average split:   1.0000.
Max Mem / Proc:  6.86 MB.
Prefetch mode:   None.
Vector width:    32.
Lanes / atom:    4.
Pair block:      256.
Neigh block:     128.
Neigh mode:      Hybrid (binning on host) with subgroup support.
Neigh sorting:   Unavailable or disabled.
---------------------------------------------------------------------

Total wall time: 0:01:01
336      |            |       |  2.23

Nlocal:           7776 ave        7776 max        7776 min
Histogram: 1 0 0 0 0 0 0 0 0 0
Nghost:           9213 ave        9213 max        9213 min
Histogram: 1 0 0 0 0 0 0 0 0 0
Neighs:              0 ave           0 max           0 min
Histogram: 1 0 0 0 0 0 0 0 0 0
FullNghs:       745669 ave      745669 max      745669 min
Histogram: 1 0 0 0 0 0 0 0 0 0

Total # of neighbors = 745669
Ave neighs/atom = 95.893647
Neighbor list builds = 72
Dangerous builds = 0
Total wall time: 0:01:01
