(written by ASE)

4335 atoms
2 atom types

0.0      31.066736431430968  xlo xhi
0.0      31.225455000963073  ylo yhi
0.0      64.029282604843686  zlo zhi

Atoms # atomic

     1   1  0.00059359786776519896   -0.061902088527877819      33.650782321967185
     2   1      1.4158376743245713      1.5024445570797205      35.737458602481418
     3   1    0.044102021149060311    0.024826767734828444      37.829764295448243
     4   1      1.4387261158055513      1.3900884103249953      39.656587812191553
     5   1   -0.037178500314566702    0.029052824050978549      41.791737659364436
     6   1      1.4414832271712952      1.4081641984297446      43.794328459636709
     7   1  -0.0021176961998050979   -0.031106187266147157      45.765903590116444
     8   1      1.3881783199165711      1.4099591103597806       47.82722772262705
     9   1    0.036931265335026074  -0.0025019574324183272      49.792899955107778
    10   1      1.4526100727718947      1.4154873321515711      51.843900627701174
    11   1   -0.055647073215672894     0.10309481992895334       53.83758288075186
    12   1       1.527863653819842      1.4560219665781668      55.909919185338801
    13   1    0.050562150277829759     0.02508541112498568      57.944262611381589
    14   1      1.3934420034299164      1.3054186379268882      59.978934150724697
    15   1     0.00686508009140356    -0.02097398104021695      62.004358792437273
    16   1    0.072332709042865762      2.7866630852449865       33.71725960660843
    17   1      1.3726024010080722      4.2538071789902983      35.630815084939108
    18   1    0.041771973074066909      2.8816135053822123      37.738430528145727
    19   1      1.4038494133134447      4.1800610821929762      39.857590165832285
    20   1  -0.0030934366936136715       2.858526465351765       41.80648491186335
    21   1      1.3583028964268073       4.337286233478955      43.713565516702708
    22   1    0.030370646038887783      2.7759485017786747      45.787184829082477
    23   1      1.3664157269942967      4.1381557041849053      47.828572426134443
    24   1   -0.048186294863214574      2.8211293308995562      49.832829556687322
    25   1      1.4327158052205298      4.3107536721787563      51.870782786470173
    26   1    0.020567870735765065      2.7997725498962547      53.860718007615723
    27   1      1.4668497613390701      4.2588650099845138      55.982125192936842
    28   1     0.03730725222304454      2.8449160558146689      57.968669653342509
    29   1      1.4300892416960893       4.315100693681142      60.053946614568346
    30   1   -0.037224674793795751      2.7471932474704581      61.988790402547657
    31   1   0.0080758328735385399      5.6502978226755456      33.721769544986365
    32   1       1.417287136250363      7.0601615772575759      35.701247339459371
    33   1    0.031894901882835093       5.673346086621776      37.679781867997605
    34   1      1.4087308223919648      7.0623678668929113      39.831739946284316
    35   1   -0.079412210701991046      5.6158643798448988      41.728259563776298
    36   1      1.4762220233535503      7.0447746154168573       43.78682789255727
    37   1     0.06441481258186979      5.7753113901244708      45.861423606524532
    38   1      1.2949249400920018      7.0876057741942553      47.899538864071054
    39   1    -0.03349256790925309      5.6395790486478194      49.855686027888744
    40   1      1.4056372255780714      7.1410582462762244      51.844909018833313
    41   1   -0.081401299827258647       5.753747168968415      54.031397747362782
    42   1      1.4454367991375003       7.154002490783645      55.999465156173187
    43   1   -0.011408175330362182      5.7026353013953477      57.997489677541118
    44   1      1.4324060574380724      7.0706706606175933      59.931374908202898
    45   1  -0.0066830475618277737       5.717633713091268      62.031004440844725
    46   1   0.0068090308636189131      8.5513340230671453      33.671086307926394
    47   1      1.4630509994412291      9.8848813085457152      35.673796140489564
    48   1  -0.0060384086880927775      8.5661070412539662      37.722244546826772
    49   1      1.3397004589060586      9.9420436915785384      39.680394025207441
    50   1    0.037475947363360983      8.6018257714226802      41.714817627080613
    51   1      1.3962915847215014      9.8906643353390038      43.789085015357578
    52   1   -0.016399908912061729      8.5026062567424532      45.857479742681292
    53   1      1.5420742999101684      9.9442269527720466      47.765971744666068
    54   1   -0.058966957697895277      8.4435760692082784      49.865455979144592
    55   1      1.3504208285815749      9.9092245299595252      51.893743255328268
    56   1   -0.095389853646221157      8.5104855849831189      53.990829932105754
    57   1      1.3979126826640675      9.9880670952820569      56.055951951428497
    58   1    0.001862076124242423       8.575925704901076      58.081596115735984
    59   1      1.3457798064328725       9.871854937486642      59.991523097919647
    60   1   -0.055401629619592212      8.5461578759588903      62.033377487772114
    61   1    0.029585875413355129      11.385304976346827      33.693729780692259
    62   1      1.4414652980851241      12.774717195844046       35.65386153540431
    63   1   -0.061011380523468467      11.384589501807191      37.698914582021175
    64   1      1.4615523647039137      12.793987334395682      39.806940627225039
    65   1   -0.024963527355899365      11.306968477522972      41.742460855120818
    66   1      1.3814928260881041      12.839987940228013      43.867733351079529
    67   1  -0.0087041996705350677      11.382940024527645       45.94083318683699
    68   1      1.4151103097300826      12.823294276746614      47.816927656463363
    69   1    0.047802773737585492      11.366590921570927      49.868596641846651
    70   1      1.4538957197554856      12.697106249650886      51.911285364577161
    71   1    0.051922709689081831      11.305617069480718      54.025985904937841
    72   1      1.4342369022137171      12.742432709079809      56.017480710952832
    73   1     0.03107305258021812      11.359997777622644      57.994020259770231
    74   1       1.409496781104286        12.7886123517378      60.048395590019418
    75   1   -0.040419819193296846      11.460860122533653      62.016591776293382
    76   1  -0.0059773754525316389      14.196036558975102      33.697340113787405
    77   1      1.4686932191637316      15.680538520943722      35.784152995631459
    78   1    0.045081964927875431      14.135092595406793      37.715863967349918
    79   1      1.4520715375044972      15.715293983369422      39.730894205519306
    80   1    0.022192548665996667       14.17580168680318      41.795933805952785
    81   1      1.4148591451195756      15.564144250637192      43.795152479615354
    82   1   -0.014636841518895917      14.182443638770943      45.822699816180005
    83   1      1.3725580015266803      15.618710180061878      47.866684629299456
    84   1    -0.06703392290719816      14.200028009260931      49.815971863814504
    85   1      1.4916645486010836      15.595696141971509      51.888697521327387
    86   1    0.016316312562659401       14.13752261041202      53.919017289393324
    87   1      1.4385685423800556      15.623749183976258      55.992313148362889
    88   1   -0.092058142733906001       14.25992755283602      58.051673371401641
    89   1      1.4630335414772671      15.571266883858771      59.991587578842619
    90   1   -0.012985400419326705      14.206537216832325      62.084885224088076
    91   1   -0.033219307063642171      17.072104337676063      33.676335891196203
    92   1      1.4069830519062361      18.419961995850031      35.796657535734866
    93   1   -0.010500964109860523      16.956188610240918      37.768434164167374
    94   1        1.44518445478601      18.472520745832899      39.811983151450853
    95   1    0.017568406988937454      17.030447618803848      41.737009356184863
    96   1      1.3639037723854091      18.485150390399333      43.871101028808283
    97   1    0.021421571409095397      17.074516893002837      45.805690773116105
    98   1      1.3508959662113051      18.473063837717046      47.819314965258492
    99   1    0.081752519413401059      16.995619103711306      49.889429023286681
   100   1      1.4661928912256541      18.343074240798188      52.029817228586197
   101   1   -0.013059813097823617      17.004361948763044      53.956071967333969
   102   1      1.3647954521773544      18.406795937548505      56.046168056113281
   103   1  -0.0010721559428861374      17.104040024087826      58.060633792341257
   104   1      1.4098611653847395      18.425037345087755      59.949732623241133
   105   1   -0.044197509913840569      17.053604754371701      61.977001448830407
   106   1   -0.029953222443069968      19.931778909595042      33.674234064080629
   107   1      1.4145819517462164      21.265376653230106      35.770962346653796
   108   1    0.063751383988446986      19.853017301121231      37.766079375865516
   109   1      1.3586156045181441      21.303003251886448      39.710719767345445
   110   1   0.0078414971787886274      19.879101098855898      41.746121286129508
   111   1      1.3694918495458981        21.3019921887891       43.80033722422074
   112   1    0.077576653467098869      19.887642226230227      45.848890347313151
   113   1      1.3723902267396624       21.26055791906407       47.92557133695874
   114   1    0.047010000121110757      19.884001195607677       49.88467285127404
   115   1      1.3958567029497508      21.216028226910463      51.924276031257293
   116   1   0.0071729545139427205      19.824138794558976      53.951382585604279
   117   1       1.471978009549012      21.257928511078255      55.907205245032188
   118   1   0.0086444210281941304      19.901785242828474      57.930900742038219
   119   1      1.4497481915575063      21.382847876899326      60.033585883784909
   120   1   -0.017649633856737439      19.794162468989462      61.996176716579761
   121   1   -0.083953999839361138      22.719548439004878      33.533058111659315
   122   1      1.4870140546591177      24.119047459932379      35.719867509757229
   123   1   -0.069770182597357053      22.638840566573982      37.742468292452664
   124   1      1.3569690966546604      24.168037906803988      39.766081862902674
   125   1     0.10040568480868627      22.755342494412115       41.75197144922695
   126   1      1.3843376882047702      24.145199978161802      43.869638335719763
   127   1   0.0043557435222349892      22.780616659083339       45.84216308467159
   128   1      1.4303042075765273       24.13944842690584      47.887704887810877
   129   1   -0.021747978097483314        22.7318990847909      49.804011607113587
   130   1       1.431698314836598      24.159474958582706      51.856359145624864
   131   1    0.028138554248469141      22.755984311993288      53.897260187398409
   132   1      1.4655136245566687      24.155451110308569      55.987270312872226
   133   1   0.0064420894937908188      22.703685235082297      58.038337492937401
   134   1      1.4748928071428973      24.115751654460233      60.072234317901582
   135   1   0.0073242409408055854       22.77940746776634      61.942274426584355
   136   1   -0.051716116435258724      25.574715474800044      33.674924175875795
   137   1      1.3732713729262054      26.955261856520195       35.66764366962861
   138   1     0.10402950555902413      25.464003235560494       37.74937335207067
   139   1      1.3948352951438201      27.011185995115582      39.696915718629462
   140   1    0.025831415190317855      25.536424043465683      41.775146469770227
   141   1      1.4126682151898773      26.978115261824065      43.819434432827656
   142   1    0.019656452364312266      25.539291938421897      45.786419440990649
   143   1      1.5494051378902955      26.898459275822738      47.887766657969578
   144   1   -0.037838016470133268      25.532906224194882      49.882390737099868
   145   1      1.3779030982843854      26.963257265009755       51.92991595244802
   146   1    0.025822159683538431      25.561044539884598      53.888091011749147
   147   1       1.414463970499914      26.890073901227584      55.944514754564686
   148   1    0.028591743935921312      25.548006549897309      57.971940922544718
   149   1      1.4690035338873904      26.985085801803653      59.977835387282262
   150   1   -0.019272660164753173      25.511612104675169         62.049029347411
   151   1    0.066258930188932946       28.49385798133595      33.720124649967147
   152   1      1.4399905627998455       29.94423049277469      35.726690971741519
   153   1   -0.010419419780303195      28.353355046538624      37.735077517803887
   154   1      1.4166795094852529      29.767208306230913       39.74541413219746
   155   1   -0.029901921088417594      28.347311459824262      41.773623594603713
   156   1      1.4848015637203051      29.800852681106015      43.824384537038853
   157   1    0.022165218143977733      28.468450478291352      45.905329762202321
   158   1      1.3899520481357606      29.861594405972401      47.839287008008846
   159   1   -0.012019283836432094      28.364609906946225        49.8221968171773
   160   1      1.4763025068498432      29.730202133643207      51.786342199515389
   161   1    0.010343619467465768       28.35740591596257        54.0104671236831
   162   1      1.4264361503197009      29.816458285685083      55.981545885006241
   163   1     0.07473256522485712      28.399911203650472      57.979250979565307
   164   1      1.4039951649016746      29.810429081918109      59.979033993571818
   165   1    0.068426150543032374      28.341512396696594      62.068448913167288
   166   1       2.826195160749132    0.055696183995606767      33.592605480782602
   167   1      4.1765074466515868      1.4334705421456129       35.76563498196721
   168   1      2.8813374842072932   -0.066507479630713739      37.700995023322655
   169   1      4.1979979667203828      1.3984746164185704      39.805000383299038
   170   1      2.7180205222708955     0.14431837926605978      41.793567496650823
   171   1       4.293080161813049      1.3346511726723405      43.761427677054613
   172   1      2.7746252389832713 -0.00059707222798433251        45.7564404995667
   173   1      4.1848179990190193       1.399265817774221      47.810161176956015
   174   1      2.7587155552516101  -0.0025914467256667427       49.82470238105077
   175   1      4.1754366639821976       1.341567636841396      51.953916632826463
   176   1      2.7861474206793875    0.013740396988836957      53.933890643907276
   177   1      4.2241489452154068      1.3237981031975912      55.983558686976799
   178   1      2.7766182037652176   0.0031689347845922939      57.976948166154386
   179   1      4.2938113453814601      1.4530472687654468      59.997402733308441
   180   1      2.8338862611241646   -0.013680916804293506      62.016494220985358
   181   1      2.8605319159183589      2.8467171484915528      33.731450515750801
   182   1      4.2787700658591854      4.1313548203048267      35.622988227378833
   183   1      2.8092040893501089      2.8865277417516375      37.631384007640712
   184   1      4.1520814980033691      4.1878722192358691      39.797313981542452
   185   1      2.7802196166190587      2.9286591065086851      41.767586990202084
   186   1      4.2762209590547986      4.2348608992037455      43.801247766632436
   187   1      2.8100014673989278       2.873629615488194      45.837530685972531
   188   1      4.2160753201638421       4.315697870423894      47.921255199159638
   189   1      2.7986927434659363        2.76853981052174      49.841070290387741
   190   1      4.3133485932387083      4.2243185913318637      51.965781747929263
   191   1      2.8565709474849883      2.9172198129204574      53.842345247281067
   192   1      4.2098951806177221      4.3055441316018603      55.923042573571323
   193   1      2.8766555917530034      2.8160805964082276      58.062915723667388
   194   1      4.2913813676398265      4.2512267887619553      59.963345815723898
   195   1       2.822537240578598      2.9013243403351141      62.096862906924123
   196   1      2.7661105642800861      5.6225281803499536      33.803485415889043
   197   1      4.2493917869966102      7.0478521828639815      35.724882347635173
   198   1       2.872913141613656       5.765610874699818      37.558057258957973
   199   1      4.2824100089031409      7.1363523697138369      39.740258146850991
   200   1      2.7508456727806068      5.6705367335051893      41.761212167028837
   201   1      4.3420880037312015      7.1514835132441181      43.842964220497564
   202   1      2.8277659352557576      5.6735597479671451      45.835201632803752
   203   1      4.2572976214616807      7.1301352590216505      47.813642369408583
   204   1      2.8561751228479011      5.6640413743145137      49.835982656334096
   205   1      4.2604252673224074      7.0669576529266021      51.892391480511002
   206   1      2.7676476612279992      5.7231986050329615      53.950068246784276
   207   1      4.2077803330230292      7.0584417951589558       55.96331103671217
   208   1      2.8541581352390422      5.7630185221543222      58.022426399524605
   209   1      4.2696942443382451      7.0459910060745452         60.081888279203
   210   1      2.8459826053011645      5.7299389852867995      62.078780972851945
   211   1      2.8032683805594405      8.5944793330244131      33.730838958482167
   212   1      4.2115969979533681       9.955103875263605      35.543410580694378
   213   1      2.7444072922020655      8.5037319763839623      37.702600743423304
   214   1      4.2293657324521439      9.8966743247202924        39.7442222190476
   215   1      2.7912573862659413      8.5043808524714013      41.739806606537108
   216   1      4.1769140882489388       9.909496732623948      43.754359178406695
   217   1      2.8451439840956843      8.4822386547216198      45.786130348020286
   218   1      4.2449829993810164       9.929426008009651      47.782727828771016
   219   1       2.862930940224246      8.4703165431323217      49.861064430932252
   220   1      4.2142702288970151      10.006861835790502      52.025781099214569
   221   1        2.80733475271203      8.5283455119221898      53.969066531068741
   222   1      4.2019603992488204      9.8904106956826396      55.908139997600969
   223   1      2.8751673048002444      8.4874933134762038      57.962341730667362
   224   1      4.2511296508520244      9.9922691294921755      60.072814127818894
   225   1      2.7935502757148307      8.5417344129172239      61.898465433140927
   226   1      2.8734572934798992      11.345757478004462      33.647598250830669
   227   1      4.2730848559194747      12.791322972557907      35.778179092832488
   228   1      2.9117196715968419      11.362670701633681      37.803765332103133
   229   1      4.3033886896128131      12.792435790976464      39.747827794698772
   230   1      2.8768753346501827      11.312798487165995      41.853889142866237
   231   1       4.249349100406663        12.8244354692001      43.828508050713204
   232   1      2.8576124378367926      11.416220966822124      45.941000287100927
   233   1      4.2728169368676081      12.722303146611372      47.898900395948459
   234   1      2.8008407478071997      11.343081400335366      49.877010433530558
   235   1      4.2558677051751106      12.836338790030675      51.876257193066181
   236   1      2.8282997947889346      11.397051717073554      53.890954514124104
   237   1      4.1880709407136054      12.795780187832143      55.940985204241976
   238   1      2.7795688536295646      11.278912570690055       57.94367094961914
   239   1      4.2918124770915398      12.751699032472983      60.035888500144438
   240   1      2.8692069284450148      11.398038075802624      62.027797589601562
   241   1      2.8576686257079587      14.255329169031285      33.727418445248567
   242   1      4.2133682687190666      15.705804194300148      35.653340199204862
   243   1      2.8890811865411079      14.201991496663823      37.718294287607272
   244   1      4.2398819858040442      15.531885765793904      39.753710217949333
   245   1      2.7911445454358881      14.155873642138657      41.702364833085859
   246   1       4.296671446850274      15.611153782268671       43.76484036223853
   247   1      2.8567798617291329      14.254292130569658      45.905488996113604
   248   1      4.2446516426145626      15.643745690051505      47.880301134349153
   249   1       2.781120826286906       14.28113589595603      49.768657357993654
   250   1       4.341050021088428      15.795384720196981      51.928209744589807
   251   1      2.7322464156974577      14.191920992694781      53.890365840415356
   252   1      4.2041273402982462      15.547090969404351      55.936564250013021
   253   1      2.8107790184797916      14.201715155435897      57.936466423306598
   254   1      4.2144914318430864      15.657310920398462      59.901871672059251
   255   1      2.8912322856838739        14.2677859530024       62.04750035223428
   256   1       2.930175676445312      17.076719906054986       33.73084570261743
   257   1      4.2681479485137181      18.545577660289091        35.8113622764143
   258   1      2.8835024425825027      16.986511673791764      37.735287912407472
   259   1      4.3431333220260857      18.439815511189963       39.75958120219758
   260   1        2.80472244988982      17.137395514614216      41.811402497655713
   261   1      4.2035685686940356        18.4423908288292      43.713186752850383
   262   1      2.8609429589788884      17.104695711144117      45.838426661437232
   263   1      4.1804313204148364       18.54521258553396      47.833654761598495
   264   1      2.8018535060948819      17.121118067632523       49.82788772094127
   265   1      4.3348944014737079      18.423455433484481      51.933302700920244
   266   1      2.8047092693884732      16.979091481758438      53.980081125343432
   267   1      4.2199841994705336      18.499412668753184      55.902433429547848
   268   1      2.8332696279914202      17.051174046482252      57.923738397937775
   269   1      4.2766852599871692      18.476992938986093       60.11908294276126
   270   1      2.7965535285707386      16.983400449558911      61.943326968887483
   271   1      2.8014778053832332      19.838673613324818       33.72834491589586
   272   1      4.2657704785355639      21.242034853883037      35.659359816815176
   273   1      2.7610213842028828      19.834509313200634      37.749988284551961
   274   1      4.1755563832118714      21.323844860185858      39.737547209754673
   275   1      2.8647033799336223       19.86087795064179      41.840464652023137
   276   1      4.2287902813992737      21.337022991273003      43.883541956584665
   277   1      2.8284039073292719      19.919262478465058      45.840150363057489
   278   1      4.2384811832578437      21.297814036764994      47.871565140503591
   279   1      2.7514860172361928      19.810883044237322       49.87345657956309
   280   1      4.1676042318470143      21.329093333677637      51.954321651768609
   281   1      2.8066434580987623      19.849571627937497      53.888622942134624
   282   1      4.2892207809620038      21.285474593929322      56.017615555871629
   283   1      2.8612782793627742      19.933376132954283      57.974667962582593
   284   1      4.1737005127969775      21.308856350244042      60.010671180658612
   285   1      2.8328774072591822       19.85008107357039      61.989629516906177
   286   1      2.8162616739602551      22.654567461588176      33.601335899694377
   287   1      4.3580460342984377      24.177224189394909      35.663092296974071
   288   1      2.8003109977275069      22.736883520212466      37.834503047465489
   289   1      4.3499517324764607       24.14627115777688      39.762974240262437
   290   1      2.7591558094751929      22.708309864335551       41.75571458442856
   291   1      4.2504502239023543      24.038400349204405      43.903438166899186
   292   1      2.7892750375992006       22.58511568820613      45.857170859897927
   293   1      4.2213350290894436      24.141851408876651      47.804849529591522
   294   1      2.8090031150853343       22.79741708048854      49.829580465508563
   295   1      4.2815986269926185      24.111511129164082      51.869218674838578
   296   1       2.745105825299941       22.61629582433433      53.985688427447521
   297   1      4.2766356391113858      24.159212352235155      55.934212465690869
   298   1       2.823633491494475      22.710715808424997      57.978892132054519
   299   1      4.2539128608110577      24.093487082141202      60.013670425090766
   300   1      2.8062177074796342      22.794802184008677      61.985150220329025
   301   1      2.8739396362567278      25.575790752397012        33.6377535060818
   302   1      4.1579278045897974      26.917872441401187      35.790302108429032
   303   1      2.8180436405071152      25.507224105699727       37.65314587903471
   304   1      4.1606144748281508      26.990287858915192      39.669268718058504
   305   1       2.817967248318872      25.483265182610754      41.869807740549248
   306   1      4.2275614359023379      26.887885347455928      43.798684283447628
   307   1      2.8344386813420126      25.631969370677801      45.767765941553009
   308   1      4.1811040825300765      26.938336464957562      47.871901861297488
   309   1      2.7387467393850993      25.600124858030966      49.842698369926175
   310   1      4.2268270491880973      26.951656254050587      51.859472168249638
   311   1      2.8183690568163415      25.469610516291155      53.904021473834362
   312   1      4.2498033650156213      26.967166004159591      55.934579981011332
   313   1      2.8359996072529277      25.500857286856558      57.973567917626319
   314   1      4.2752985955348208      26.991484473968399      60.062138548579043
   315   1      2.9068932282561941       25.56752885844999      62.036729419894428
   316   1      2.8906025299269493      28.381773307390898      33.682213323112684
   317   1      4.2537057767320805      29.912821100731787      35.747067291735192
   318   1      2.7938654639224727      28.480714752747119      37.785999390323354
   319   1      4.2696407942204422       29.74531848890372      39.749082260908523
   320   1      2.8551200917166644      28.432743271880437       41.82794651194623
   321   1      4.1901204115395769       29.81731795857532      43.885135265252622
   322   1      2.8243598255843279      28.375604170659447      45.868276895123898
   323   1      4.2375262273171312      29.786914556361403      47.921407497998281
   324   1       2.787557370986633      28.366310123231084       49.96323866524844
   325   1      4.2247664129302498      29.728720325086307        51.9319868074993
   326   1      2.8393727672674598      28.315028152051941      53.978320706578224
   327   1      4.2190211292917619      29.765909755630965      56.002735847042636
   328   1      2.8101024326036077      28.402776927927668      58.012149302321291
   329   1      4.2815260838394487      29.803770959698927       60.05169305006045
   330   1      2.9107889931271758      28.338030568067104       62.04497574457119
   331   1       5.689188980894297   -0.036747176720315043      33.692632340305586
   332   1      7.1615151984837766      1.3871385931970692      35.742431124651226
   333   1      5.6808719898816857   -0.082914186145170127      37.706636585439654
   334   1      7.0345143682780167      1.4196585382857252      39.726890932106059
   335   1      5.7925533052923486     0.10186611180506178      41.832741167531353
   336   1      7.1042770159326212      1.4199827032509711      43.715305158153129
   337   1      5.7398490932200268   -0.047521774865379361      45.782754380385292
   338   1      7.0521709788745248      1.4507974880839589      47.871482444787667
   339   1      5.6156099601719651  -0.0098837198845120582      49.884408878158688
   340   1      7.0764714221003047       1.549007954607847      51.956015527681799
   341   1      5.6164699051986648     0.01712652456948489      53.976556125371985
   342   1      7.1493023451867437      1.4144631389859597      56.022703197063052
   343   1      5.5665007246465805   -0.081717287321812895      58.026618283118566
   344   1      7.1362397653694911      1.4217960480679546      59.912116510219214
   345   1      5.6033202001531102   -0.023542621944300905      62.045945393255053
   346   1      5.7003191969830524      2.8299140642287761      33.606296501309728
   347   1      7.1088525032513079      4.1456074337675117      35.704389544793862
   348   1       5.583468553600107      2.8383233193065092      37.763665291744914
   349   1        7.08747236027064      4.2418554533629695      39.798990989265718
   350   1      5.6851566014776278      2.8364367440810008      41.794627242500837
   351   1      7.0442360671671125      4.3269801202250466      43.749052233493138
   352   1      5.6071776276061431      2.8219032142952805      45.846340162857189
   353   1      7.0439354546417858      4.2334522766612777      47.878649555677363
   354   1      5.6526400535876489      2.7476733267471611      49.882395893412109
   355   1      7.1270551310786754      4.2696203915212125      51.929048620527176
   356   1       5.639946084803757      2.9001642822753047      53.950999443477627
   357   1      7.0868199153217528      4.2363829174448036      55.947567840299946
   358   1      5.7371792711307039      2.7800217051202694      57.970878747405244
   359   1      7.0444103152564104      4.2295143068694401       60.00010879662026