(written by ASE)

10976 atoms
1 atom types

0.0      50.609999999999999  xlo xhi
0.0      50.609999999999999  ylo yhi
0.0      50.609999999999999  zlo zhi

Atoms # atomic

     1   1                       0                       0                       0
     2   1                       0      1.8075000000000001      1.8075000000000001
     3   1      1.8075000000000001                       0      1.8075000000000001
     4   1      1.8075000000000001      1.8075000000000001                       0
     5   1                       0                       0      3.6150000000000002
     6   1                       0      1.8075000000000001      5.4225000000000003
     7   1      1.8075000000000001                       0      5.4225000000000003
     8   1      1.8075000000000001      1.8075000000000001      3.6150000000000002
     9   1                       0                       0      7.2300000000000004
    10   1                       0      1.8075000000000001      9.0375000000000014
    11   1      1.8075000000000001                       0      9.0375000000000014
    12   1      1.8075000000000001      1.8075000000000001      7.2300000000000004
    13   1                       0                       0      10.845000000000001
    14   1                       0      1.8075000000000001                 12.6525
    15   1      1.8075000000000001                       0                 12.6525
    16   1      1.8075000000000001      1.8075000000000001      10.845000000000001
    17   1                       0                       0      14.460000000000001
    18   1                       0      1.8075000000000001      16.267500000000002
    19   1      1.8075000000000001                       0      16.267500000000002
    20   1      1.8075000000000001      1.8075000000000001      14.460000000000001
    21   1                       0                       0      18.075000000000003
    22   1                       0      1.8075000000000001      19.882500000000004
    23   1      1.8075000000000001                       0      19.882500000000004
    24   1      1.8075000000000001      1.8075000000000001      18.075000000000003
    25   1                       0                       0      21.690000000000001
    26   1                       0      1.8075000000000001      23.497500000000002
    27   1      1.8075000000000001                       0      23.497500000000002
    28   1      1.8075000000000001      1.8075000000000001      21.690000000000001
    29   1                       0                       0                  25.305
    30   1                       0      1.8075000000000001      27.112500000000001
    31   1      1.8075000000000001                       0      27.112500000000001
    32   1      1.8075000000000001      1.8075000000000001                  25.305
    33   1                       0                       0      28.920000000000002
    34   1                       0      1.8075000000000001      30.727500000000003
    35   1      1.8075000000000001                       0      30.727500000000003
    36   1      1.8075000000000001      1.8075000000000001      28.920000000000002
    37   1                       0                       0      32.535000000000004
    38   1                       0      1.8075000000000001      34.342500000000001
    39   1      1.8075000000000001                       0      34.342500000000001
    40   1      1.8075000000000001      1.8075000000000001      32.535000000000004
    41   1                       0                       0      36.150000000000006
    42   1                       0      1.8075000000000001      37.957500000000003
    43   1      1.8075000000000001                       0      37.957500000000003
    44   1      1.8075000000000001      1.8075000000000001      36.150000000000006
    45   1                       0                       0      39.765000000000001
    46   1                       0      1.8075000000000001      41.572499999999998
    47   1      1.8075000000000001                       0      41.572499999999998
    48   1      1.8075000000000001      1.8075000000000001      39.765000000000001
    49   1                       0                       0      43.380000000000003
    50   1                       0      1.8075000000000001                 45.1875
    51   1      1.8075000000000001                       0                 45.1875
    52   1      1.8075000000000001      1.8075000000000001      43.380000000000003
    53   1                       0                       0      46.995000000000005
    54   1                       0      1.8075000000000001      48.802500000000002
    55   1      1.8075000000000001                       0      48.802500000000002
    56   1      1.8075000000000001      1.8075000000000001      46.995000000000005
    57   1                       0      3.6150000000000002                       0
    58   1                       0      5.4225000000000003      1.8075000000000001
    59   1      1.8075000000000001      3.6150000000000002      1.8075000000000001
    60   1      1.8075000000000001      5.4225000000000003                       0
    61   1                       0      3.6150000000000002      3.6150000000000002
    62   1                       0      5.4225000000000003      5.4225000000000003
    63   1      1.8075000000000001      3.6150000000000002      5.4225000000000003
    64   1      1.8075000000000001      5.4225000000000003      3.6150000000000002
    65   1                       0      3.6150000000000002      7.2300000000000004
    66   1                       0      5.4225000000000003      9.0375000000000014
    67   1      1.8075000000000001      3.6150000000000002      9.0375000000000014
    68   1      1.8075000000000001      5.4225000000000003      7.2300000000000004
    69   1                       0      3.6150000000000002      10.845000000000001
    70   1                       0      5.4225000000000003                 12.6525
    71   1      1.8075000000000001      3.6150000000000002                 12.6525
    72   1      1.8075000000000001      5.4225000000000003      10.845000000000001
    73   1                       0      3.6150000000000002      14.460000000000001
    74   1                       0      5.4225000000000003      16.267500000000002
    75   1      1.8075000000000001      3.6150000000000002      16.267500000000002
    76   1      1.8075000000000001      5.4225000000000003      14.460000000000001
    77   1                       0      3.6150000000000002      18.075000000000003
    78   1                       0      5.4225000000000003      19.882500000000004
    79   1      1.8075000000000001      3.6150000000000002      19.882500000000004
    80   1      1.8075000000000001      5.4225000000000003      18.075000000000003
    81   1                       0      3.6150000000000002      21.690000000000001
    82   1                       0      5.4225000000000003      23.497500000000002
    83   1      1.8075000000000001      3.6150000000000002      23.497500000000002
    84   1      1.8075000000000001      5.4225000000000003      21.690000000000001
    85   1                       0      3.6150000000000002                  25.305
    86   1                       0      5.4225000000000003      27.112500000000001
    87   1      1.8075000000000001      3.6150000000000002      27.112500000000001
    88   1      1.8075000000000001      5.4225000000000003                  25.305
    89   1                       0      3.6150000000000002      28.920000000000002
    90   1                       0      5.4225000000000003      30.727500000000003
    91   1      1.8075000000000001      3.6150000000000002      30.727500000000003
    92   1      1.8075000000000001      5.4225000000000003      28.920000000000002
    93   1                       0      3.6150000000000002      32.535000000000004
    94   1                       0      5.4225000000000003      34.342500000000001
    95   1      1.8075000000000001      3.6150000000000002      34.342500000000001
    96   1      1.8075000000000001      5.4225000000000003      32.535000000000004
    97   1                       0      3.6150000000000002      36.150000000000006
    98   1                       0      5.4225000000000003      37.957500000000003
    99   1      1.8075000000000001      3.6150000000000002      37.957500000000003
   100   1      1.8075000000000001      5.4225000000000003      36.150000000000006
   101   1                       0      3.6150000000000002      39.765000000000001
   102   1                       0      5.4225000000000003      41.572499999999998
   103   1      1.8075000000000001      3.6150000000000002      41.572499999999998
   104   1      1.8075000000000001      5.4225000000000003      39.765000000000001
   105   1                       0      3.6150000000000002      43.380000000000003
   106   1                       0      5.4225000000000003                 45.1875
   107   1      1.8075000000000001      3.6150000000000002                 45.1875
   108   1      1.8075000000000001      5.4225000000000003      43.380000000000003
   109   1                       0      3.6150000000000002      46.995000000000005
   110   1                       0      5.4225000000000003      48.802500000000002
   111   1      1.8075000000000001      3.6150000000000002      48.802500000000002
   112   1      1.8075000000000001      5.4225000000000003      46.995000000000005
   113   1                       0      7.2300000000000004                       0
   114   1                       0      9.0375000000000014      1.8075000000000001
   115   1      1.8075000000000001      7.2300000000000004      1.8075000000000001
   116   1      1.8075000000000001      9.0375000000000014                       0
   117   1                       0      7.2300000000000004      3.6150000000000002
   118   1                       0      9.0375000000000014      5.4225000000000003
   119   1      1.8075000000000001      7.2300000000000004      5.4225000000000003
   120   1      1.8075000000000001      9.0375000000000014      3.6150000000000002
   121   1                       0      7.2300000000000004      7.2300000000000004
   122   1                       0      9.0375000000000014      9.0375000000000014
   123   1      1.8075000000000001      7.2300000000000004      9.0375000000000014
   124   1      1.8075000000000001      9.0375000000000014      7.2300000000000004
   125   1                       0      7.2300000000000004      10.845000000000001
   126   1                       0      9.0375000000000014                 12.6525
   127   1      1.8075000000000001      7.2300000000000004                 12.6525
   128   1      1.8075000000000001      9.0375000000000014      10.845000000000001
   129   1                       0      7.2300000000000004      14.460000000000001
   130   1                       0      9.0375000000000014      16.267500000000002
   131   1      1.8075000000000001      7.2300000000000004      16.267500000000002
   132   1      1.8075000000000001      9.0375000000000014      14.460000000000001
   133   1                       0      7.2300000000000004      18.075000000000003
   134   1                       0      9.0375000000000014      19.882500000000004
   135   1      1.8075000000000001      7.2300000000000004      19.882500000000004
   136   1      1.8075000000000001      9.0375000000000014      18.075000000000003
   137   1                       0      7.2300000000000004      21.690000000000001
   138   1                       0      9.0375000000000014      23.497500000000002
   139   1      1.8075000000000001      7.2300000000000004      23.497500000000002
   140   1      1.8075000000000001      9.0375000000000014      21.690000000000001
   141   1                       0      7.2300000000000004                  25.305
   142   1                       0      9.0375000000000014      27.112500000000001
   143   1      1.8075000000000001      7.2300000000000004      27.112500000000001
   144   1      1.8075000000000001      9.0375000000000014                  25.305
   145   1                       0      7.2300000000000004      28.920000000000002
   146   1                       0      9.0375000000000014      30.727500000000003
   147   1      1.8075000000000001      7.2300000000000004      30.727500000000003
   148   1      1.8075000000000001      9.0375000000000014      28.920000000000002
   149   1                       0      7.2300000000000004      32.535000000000004
   150   1                       0      9.0375000000000014      34.342500000000001
   151   1      1.8075000000000001      7.2300000000000004      34.342500000000001
   152   1      1.8075000000000001      9.0375000000000014      32.535000000000004
   153   1                       0      7.2300000000000004      36.150000000000006
   154   1                       0      9.0375000000000014      37.957500000000003
   155   1      1.8075000000000001      7.2300000000000004      37.957500000000003
   156   1      1.8075000000000001      9.0375000000000014      36.150000000000006
   157   1                       0      7.2300000000000004      39.765000000000001
   158   1                       0      9.0375000000000014      41.572499999999998
   159   1      1.8075000000000001      7.2300000000000004      41.572499999999998
   160   1      1.8075000000000001      9.0375000000000014      39.765000000000001
   161   1                       0      7.2300000000000004      43.380000000000003
   162   1                       0      9.0375000000000014                 45.1875
   163   1      1.8075000000000001      7.2300000000000004                 45.1875
   164   1      1.8075000000000001      9.0375000000000014      43.380000000000003
   165   1                       0      7.2300000000000004      46.995000000000005
   166   1                       0      9.0375000000000014      48.802500000000002
   167   1      1.8075000000000001      7.2300000000000004      48.802500000000002
   168   1      1.8075000000000001      9.0375000000000014      46.995000000000005
   169   1                       0      10.845000000000001                       0
   170   1                       0                 12.6525      1.8075000000000001
   171   1      1.8075000000000001      10.845000000000001      1.8075000000000001
   172   1      1.8075000000000001                 12.6525                       0
   173   1                       0      10.845000000000001      3.6150000000000002
   174   1                       0                 12.6525      5.4225000000000003
   175   1      1.8075000000000001      10.845000000000001      5.4225000000000003
   176   1      1.8075000000000001                 12.6525      3.6150000000000002
   177   1                       0      10.845000000000001      7.2300000000000004
   178   1                       0                 12.6525      9.0375000000000014
   179   1      1.8075000000000001      10.845000000000001      9.0375000000000014
   180   1      1.8075000000000001                 12.6525      7.2300000000000004
   181   1                       0      10.845000000000001      10.845000000000001
   182   1                       0                 12.6525                 12.6525
   183   1      1.8075000000000001      10.845000000000001                 12.6525
   184   1      1.8075000000000001                 12.6525      10.845000000000001
   185   1                       0      10.845000000000001      14.460000000000001
   186   1                       0                 12.6525      16.267500000000002
   187   1      1.8075000000000001      10.845000000000001      16.267500000000002
   188   1      1.8075000000000001                 12.6525      14.460000000000001
   189   1                       0      10.845000000000001      18.075000000000003
   190   1                       0                 12.6525      19.882500000000004
   191   1      1.8075000000000001      10.845000000000001      19.882500000000004
   192   1      1.8075000000000001                 12.6525      18.075000000000003
   193   1                       0      10.845000000000001      21.690000000000001
   194   1                       0                 12.6525      23.497500000000002
   195   1      1.8075000000000001      10.845000000000001      23.497500000000002
   196   1      1.8075000000000001                 12.6525      21.690000000000001
   197   1                       0      10.845000000000001                  25.305
   198   1                       0                 12.6525      27.112500000000001
   199   1      1.8075000000000001      10.845000000000001      27.112500000000001
   200   1      1.8075000000000001                 12.6525                  25.305
   201   1                       0      10.845000000000001      28.920000000000002
   202   1                       0                 12.6525      30.727500000000003
   203   1      1.8075000000000001      10.845000000000001      30.727500000000003
   204   1      1.8075000000000001                 12.6525      28.920000000000002
   205   1                       0      10.845000000000001      32.535000000000004
   206   1                       0                 12.6525      34.342500000000001
   207   1      1.8075000000000001      10.845000000000001      34.342500000000001
   208   1      1.8075000000000001                 12.6525      32.535000000000004
   209   1                       0      10.845000000000001      36.150000000000006
   210   1                       0                 12.6525      37.957500000000003
   211   1      1.8075000000000001      10.845000000000001      37.957500000000003
   212   1      1.8075000000000001                 12.6525      36.150000000000006
   213   1                       0      10.845000000000001      39.765000000000001
   214   1                       0                 12.6525      41.572499999999998
   215   1      1.8075000000000001      10.845000000000001      41.572499999999998
   216   1      1.8075000000000001                 12.6525      39.765000000000001
   217   1                       0      10.845000000000001      43.380000000000003
   218   1                       0                 12.6525                 45.1875
   219   1      1.8075000000000001      10.845000000000001                 45.1875
   220   1      1.8075000000000001                 12.6525      43.380000000000003
   221   1                       0      10.845000000000001      46.995000000000005
   222   1                       0                 12.6525      48.802500000000002
   223   1      1.8075000000000001      10.845000000000001      48.802500000000002
   224   1      1.8075000000000001                 12.6525      46.995000000000005
   225   1                       0      14.460000000000001                       0
   226   1                       0      16.267500000000002      1.8075000000000001
   227   1      1.8075000000000001      14.460000000000001      1.8075000000000001
   228   1      1.8075000000000001      16.267500000000002                       0
   229   1                       0      14.460000000000001      3.6150000000000002
   230   1                       0      16.267500000000002      5.4225000000000003
   231   1      1.8075000000000001      14.460000000000001      5.4225000000000003
   232   1      1.8075000000000001      16.267500000000002      3.6150000000000002
   233   1                       0      14.460000000000001      7.2300000000000004
   234   1                       0      16.267500000000002      9.0375000000000014
   235   1      1.8075000000000001      14.460000000000001      9.0375000000000014
   236   1      1.8075000000000001      16.267500000000002      7.2300000000000004
   237   1                       0      14.460000000000001      10.845000000000001
   238   1                       0      16.267500000000002                 12.6525
   239   1      1.8075000000000001      14.460000000000001                 12.6525
   240   1      1.8075000000000001      16.267500000000002      10.845000000000001
   241   1                       0      14.460000000000001      14.460000000000001
   242   1                       0      16.267500000000002      16.267500000000002
   243   1      1.8075000000000001      14.460000000000001      16.267500000000002
   244   1      1.8075000000000001      16.267500000000002      14.460000000000001
   245   1                       0      14.460000000000001      18.075000000000003
   246   1                       0      16.267500000000002      19.882500000000004
   247   1      1.8075000000000001      14.460000000000001      19.882500000000004
   248   1      1.8075000000000001      16.267500000000002      18.075000000000003
   249   1                       0      14.460000000000001      21.690000000000001
   250   1                       0      16.267500000000002      23.497500000000002
   251   1      1.8075000000000001      14.460000000000001      23.497500000000002
   252   1      1.8075000000000001      16.267500000000002      21.690000000000001
   253   1                       0      14.460000000000001                  25.305
   254   1                       0      16.267500000000002      27.112500000000001
   255   1      1.8075000000000001      14.460000000000001      27.112500000000001
   256   1      1.8075000000000001      16.267500000000002                  25.305
   257   1                       0      14.460000000000001      28.920000000000002
   258   1                       0      16.267500000000002      30.727500000000003
   259   1      1.8075000000000001      14.460000000000001      30.727500000000003
   260   1      1.8075000000000001      16.267500000000002      28.920000000000002
   261   1                       0      14.460000000000001      32.535000000000004
   262   1                       0      16.267500000000002      34.342500000000001
   263   1      1.8075000000000001      14.460000000000001      34.342500000000001
   264   1      1.8075000000000001      16.267500000000002      32.535000000000004
   265   1                       0      14.460000000000001      36.150000000000006
   266   1                       0      16.267500000000002      37.957500000000003
   267   1      1.8075000000000001      14.460000000000001      37.957500000000003
   268   1      1.8075000000000001      16.267500000000002      36.150000000000006
   269   1                       0      14.460000000000001      39.765000000000001
   270   1                       0      16.267500000000002      41.572499999999998
   271   1      1.8075000000000001      14.460000000000001      41.572499999999998
   272   1      1.8075000000000001      16.267500000000002      39.765000000000001
   273   1                       0      14.460000000000001      43.380000000000003
   274   1                       0      16.267500000000002                 45.1875
   275   1      1.8075000000000001      14.460000000000001                 45.1875
   276   1      1.8075000000000001      16.267500000000002      43.380000000000003
   277   1                       0      14.460000000000001      46.995000000000005
   278   1                       0      16.267500000000002      48.802500000000002
   279   1      1.8075000000000001      14.460000000000001      48.802500000000002
   280   1      1.8075000000000001      16.267500000000002      46.995000000000005
   281   1                       0      18.075000000000003                       0
   282   1                       0      19.882500000000004      1.8075000000000001
   283   1      1.8075000000000001      18.075000000000003      1.8075000000000001
   284   1      1.8075000000000001      19.882500000000004                       0
   285   1                       0      18.075000000000003      3.6150000000000002
   286   1                       0      19.882500000000004      5.4225000000000003
   287   1      1.8075000000000001      18.075000000000003      5.4225000000000003
   288   1      1.8075000000000001      19.882500000000004      3.6150000000000002
   289   1                       0      18.075000000000003      7.2300000000000004
   290   1                       0      19.882500000000004      9.0375000000000014
   291   1      1.8075000000000001      18.075000000000003      9.0375000000000014
   292   1      1.8075000000000001      19.882500000000004      7.2300000000000004
   293   1                       0      18.075000000000003      10.845000000000001
   294   1                       0      19.882500000000004                 12.6525
   295   1      1.8075000000000001      18.075000000000003                 12.6525
   296   1      1.8075000000000001      19.882500000000004      10.845000000000001
   297   1                       0      18.075000000000003      14.460000000000001
   298   1                       0      19.882500000000004      16.267500000000002
   299   1      1.8075000000000001      18.075000000000003      16.267500000000002
   300   1      1.8075000000000001      19.882500000000004      14.460000000000001
   301   1                       0      18.075000000000003      18.075000000000003
   302   1                       0      19.882500000000004      19.882500000000004
   303   1      1.8075000000000001      18.075000000000003      19.882500000000004
   304   1      1.8075000000000001      19.882500000000004      18.075000000000003
   305   1                       0      18.075000000000003      21.690000000000001
   306   1                       0      19.882500000000004      23.497500000000002
   307   1      1.8075000000000001      18.075000000000003      23.497500000000002
   308   1      1.8075000000000001      19.882500000000004      21.690000000000001
   309   1                       0      18.075000000000003                  25.305
   310   1                       0      19.882500000000004      27.112500000000001
   311   1      1.8075000000000001      18.075000000000003      27.112500000000001
   312   1      1.8075000000000001      19.882500000000004                  25.305
   313   1                       0      18.075000000000003      28.920000000000002
   314   1                       0      19.882500000000004      30.727500000000003
   315   1      1.8075000000000001      18.075000000000003      30.727500000000003
   316   1      1.8075000000000001      19.882500000000004      28.920000000000002
   317   1                       0      18.075000000000003      32.535000000000004
   318   1                       0      19.882500000000004      34.342500000000001
   319   1      1.8075000000000001      18.075000000000003      34.342500000000001
   320   1      1.8075000000000001      19.882500000000004      32.535000000000004
   321   1                       0      18.075000000000003      36.150000000000006
   322   1                       0      19.882500000000004      37.957500000000003
   323   1      1.8075000000000001      18.075000000000003      37.957500000000003
   324   1      1.8075000000000001      19.882500000000004      36.150000000000006
   325   1                       0      18.075000000000003      39.765000000000001
   326   1                       0      19.882500000000004      41.572499999999998
   327   1      1.8075000000000001      18.075000000000003      41.572499999999998
   328   1      1.8075000000000001      19.882500000000004      39.765000000000001
   329   1                       0      18.075000000000003      43.380000000000003
   330   1                       0      19.882500000000004                 45.1875
   331   1      1.8075000000000001      18.075000000000003                 45.1875
   332   1      1.8075000000000001      19.882500000000004      43.380000000000003
   333   1                       0      18.075000000000003      46.995000000000005
   334   1                       0      19.882500000000004      48.802500000000002
   335   1      1.8075000000000001      18.075000000000003      48.802500000000002
   336   1      1.8075000000000001      19.882500000000004      46.995000000000005
   337   1                       0      21.690000000000001                       0
   338   1                       0      23.497500000000002      1.8075000000000001
   339   1      1.8075000000000001      21.690000000000001      1.8075000000000001
   340   1      1.8075000000000001      23.497500000000002                       0
   341   1                       0      21.690000000000001      3.6150000000000002
   342   1                       0      23.497500000000002      5.4225000000000003
   343   1      1.8075000000000001      21.690000000000001      5.4225000000000003
   344   1      1.8075000000000001      23.497500000000002      3.6150000000000002
   345   1                       0      21.690000000000001      7.2300000000000004
   346   1                       0      23.497500000000002      9.0375000000000014
   347   1      1.8075000000000001      21.690000000000001      9.0375000000000014
   348   1      1.8075000000000001      23.497500000000002      7.2300000000000004
   349   1                       0      21.690000000000001      10.845000000000001
   350   1                       0      23.497500000000002                 12.6525
   351   1      1.8075000000000001      21.690000000000001                 12.6525
   352   1      1.8075000000000001      23.497500000000002      10.845000000000001
   353   1                       0      21.690000000000001      14.460000000000001
   354   1                       0      23.497500000000002      16.267500000000002
   355   1      1.8075000000000001      21.690000000000001      16.267500000000002
   356   1      1.8075000000000001      23.497500000000002      14.460000000000001
   357   1                       0      21.690000000000001      18.075000000000003
   358   1                       0      23.497500000000002      19.882500000000004
   359   1      1.8075000000000001      21.690000000000001      19.882500000000004