LAMMPS (11 Feb 2026 - Development - b75dfcc)
OMP_NUM_THREADS environment is not set. Defaulting to 1 thread.
  using 1 OpenMP thread(s) per MPI task
package gpu 1
units metal
boundary p p p
atom_style atomic
timestep 0.002
read_data data.crystal
Reading data file ...
  orthogonal box = (0 0 0) to (50.61 50.61 50.61)
  1 by 1 by 1 MPI processor grid
  reading atoms ...
  10976 atoms
  read_data CPU = 0.029 seconds
change_box all triclinic
Changing box ...
  triclinic box = (0 0 0) to (50.61 50.61 50.61) with tilt (0 0 0)

pair_style eam/alloy
pair_coeff * * Cu_zhou.eam.alloy Cu
Reading eam/alloy potential file Cu_zhou.eam.alloy with DATE: 2007-10-12

neighbor 2.0 bin
neigh_modify delay 10 check yes

thermo 100
thermo_style custom step temp pe press pxx pyy pzz lx ly lz

print '=== Phase 1: 0K Relaxation ==='
=== Phase 1: 0K Relaxation ===
fix relax all box/relax aniso 0.0 vmax 0.001
minimize 1.0e-8 1.0e-10 10000 100000

CITE-CITE-CITE-CITE-CITE-CITE-CITE-CITE-CITE-CITE-CITE-CITE-CITE

Your simulation uses code contributions which should be cited:

- GPU package (short-range, long-range and three-body potentials): https://doi.org/10.1016/j.cpc.2010.12.021, https://doi.org/10.1016/j.cpc.2011.10.012, https://doi.org/10.1016/j.cpc.2013.08.002, https://doi.org/10.1016/j.commatsci.2014.10.068, https://doi.org/10.1016/j.cpc.2016.10.020, https://doi.org/10.3233/APC200086

@Article{Brown11,
 author = {W. M. Brown and P. Wang and S. J. Plimpton and A. N. Tharrington},
 title = {Implementing Molecular Dynamics on Hybrid High Performance Computers---Short Range Forces},
 journal = {Comput.\ Phys.\ Commun.},
 year =    2011,
 volume =  182,
 pages =   {898--911},
 doi =     {10.1016/j.cpc.2010.12.021Done.

Setting up cg style minimization ...
  Unit style    : metal
  Current step  : 0
WARNING: Energy due to 3 extra global DOFs will be included in minimizer energies
 (src/min.cpp:222)
Per MPI rank memory allocation (min/avg/max) = 11.77 | 11.77 | 11.77 Mbytes
   Step          Temp          PotEng         Press           Pxx            Pyy            Pzz             Lx             Ly             Lz      
         0   0             -38852.884     -214.09019     -214.09011     -214.09034     -214.09012      50.61          50.61          50.61        
         2   0             -38852.885      10.57205       10.572059      10.572595      10.571496      50.607257      50.607257      50.607257    
Loop time of 0.0121211 on 1 procs for 2 steps with 10976 atoms

100.0% CPU use with 1 MPI tasks x 1 OpenMP threads

Minimization stats:
  Stopping criterion = energy tolerance
  Energy initial, next-to-last, final = 
     -38852.8835632944  -38852.8850590138  -38852.8852234426
  Force two-norm initial, final = 30.002404 1.4813974
  Force max component initial, final = 17.321908 0.85532896
  Final line search alpha, max atom move = 0.0063885363 0.0054643001
  Iterations, force evaluations = 2 6

MPI task timing breakdown:
Section |  min time  |  avg time  |  max time  |%varavg| %total
---------------------------------------------------------------
Pair    | 0.0084713  | 0.0084713  | 0.0084713  |   0.0 | 69.89
Neigh   | 0          | 0          | 0          |   0.0 |  0.00
Comm    | 0.0005739  | 0.0005739  | 0.0005739  |   0.0 |  4.73
Output  | 0          | 0          | 0          |   0.0 |  0.00
Modify  | 6.4e-07    | 6.4e-07    | 6.4e-07    |   0.0 |  0.01
Other   |            | 0.003075   |            |       | 25.37

Nlocal:          10976 ave       10976 max       10976 min
Histogram: 1 0 0 0 0 0 0 0 0 0
Nghost:          23485 ave       23485 max       23485 min
Histogram: 1 0 0 0 0 0 0 0 0 0
Neighs:              0 ave           0 max           0 min
Histogram: 1 0 0 0 0 0 0 0 0 0

Total # of neighbors = 0
Ave neighs/atom = 0
Neighbor list builds = 0
Dangerous builds = 0
=== Phase 2: Equilibration at 300.0K ===


---------------------------------------------------------------------
      Device Time Info (average): 
---------------------------------------------------------------------
Data Transfer:   0.0007 s.
Neighbor copy:   0.0000 s.
Neighbor build:  0.0004 s.
Force calc:      0.0070 s.
Device Overhead: 0.0002 s.
CPU Neighbor:    0.0006 s.
CPU Cast/Pack:   0.0011 s.
CPU Driver_Time: 0.0001 s.
CPU Idle_Time:   0.0070 s.
Average split:   1.0000.
Max Mem / Proc:  43.45 MB.
Prefetch mode:   None.
Vector width:    32.
Lanes / atom:    4.
Pair block:      256.
Neigh block:     128.
Neigh mode:      Hybrid (binning on host) with subgroup support.
Neigh sorting:   Unavailable or disabled.
---------------------------------------------------------------------


--------------------------------------------------------------------------
- Using acceleration for eam/alloy:
-  with 1 proc(s) per device.
-  with 1 thread(s) per proc.
-  Horizontal vector operations: ENABLED
-  Shared memory system: No
--------------------------------------------------------------------------
Device 0: NVIDIA RTX A4000, 48 CUs, 16/16 GB, 1.6 GHZ (Mixed Precision)
--------------------------------------------------------------------------

Initializing Device and compiling on process 0...Done.
Initializing Device 0 on core 0...Done.

Setting up Verlet run ...
  Unit style    : metal
  Current step  : 0
  Time step     : 0.002
Per MPI rank memory allocation (min/avg/max) = 8.732 | 8.732 | 8.732 Mbytes
   Step          Temp          PotEng         Press           Pxx            Pyy            Pzz             Lx             Ly             Lz      
         0   300           -38852.885      3517.8864      3476.42        3491.1242      3586.1151      50.607257      50.607257      50.607257    
       100   145.54022     -38571.978      4193.8603      4295.9659      4178.6805      4106.9346      50.628833      50.636474      50.637117    
       200   198.50377     -38542.667      1160.3716      1062.2461      1236.858       1182.0108      50.682789      50.690113      50.682125    
       300   250.32517     -38498.359     -254.49073     -171.85117     -155.48211     -436.13891      50.710303      50.721983      50.73244     
       400   283.24497     -38434.002     -865.54628     -849.02173     -852.33214     -895.28496      50.750853      50.740364      50.759958    
       500   309.39647     -38401.338     -1363.8308     -1495.6185     -1339.3442     -1256.5298      50.776364      50.767332      50.768231    
       600   302.30441     -38414.914     -1631.4388     -1434.8471     -1851.432      -1608.0373      50.753492      50.783322      50.766923    
       700   293.67865     -38427.164     -1587.2256     -1790.0323     -1432.6717     -1538.9729      50.769365      50.743632      50.779189    
       800   299.29308     -38407.238     -1381.8648     -1234.5214     -1542.4341     -1368.639       50.747451      50.780435      50.772605    
       900   306.615       -38410.022     -831.83841     -935.20419     -839.20834     -721.10269      50.76256       50.760676      50.760701    
      1000   301.04111     -38430.26      -48.949558     -228.31469      190.63185     -109.16583      50.756667      50.73184       50.746166    
      1100   298.20913     -38416.197      927.47727      1311.7792      524.55692      946.09569      50.71274       50.769698      50.723417    
      1200   310.39004     -38415.235      1389.9582      1096.092       1807.8691      1265.9136      50.749073      50.70352       50.739157    
      1300   301.19513     -38419.073      1968.2852      2124.1083      1801.7228      1979.0244      50.706827      50.74194       50.716488    
      1400   304.15376     -38429.378      1694.033       1756.956       1778.5774      1546.5657      50.7224        50.721679      50.72604     
      1500   302.90693     -38412.404      1414.19        1248.7714      1628.7944      1365.0043      50.741908      50.720087      50.726893    
      1600   297.25614     -38406.722      960.56566      1223.9472      731.80568      925.94411      50.720972      50.765618      50.726357    
      1700   295.92438     -38419.185      153.15741      197.59898      211.47581      50.397454      50.752032      50.740905      50.737657    
      1800   296.86421     -38409.957     -472.56765     -260.99391     -607.13457     -549.57448      50.736055      50.770922      50.756038    
      1900   301.88624     -38408.383     -1000.2906     -1142.7109     -907.93061     -950.23031      50.769398      50.760558      50.757474    
      2000   294.91139     -38416.37      -1342.2196     -1328.0556     -1484.9334     -1213.6698      50.761894      50.785785      50.742123    
      2100   303.09146     -38421.546     -1630.6157     -1499.9856     -1638.8713     -1752.9901      50.75508       50.77055       50.778738    
      2200   301.44002     -38410.324     -1528.836      -1618.9207     -1513.5088     -1454.0786      50.786416      50.771666      50.747231    
      2300   303.13968     -38418.358     -1277.3196     -1051.4067     -1484.5993     -1295.9527      50.73495       50.790904      50.765648    
      2400   296.70934     -38416.583     -397.80466     -471.98731      78.790611     -800.21728      50.761608      50.721749      50.773167    
      2500   299.93501     -38410.938      332.0124       394.5943      -17.130871      618.57377      50.741078      50.786095      50.708631    
Loop time of 3.64946 on 1 procs for 2500 steps with 10976 atoms

Performance: 118.374 ns/day, 0.203 hours/ns, 685.033 timesteps/s, 7.519 Matom-step/s
99.8% CPU use with 1 MPI tasks x 1 OpenMP threads

MPI task timing breakdown:
Section |  min time  |  avg time  |  max time  |%varavg| %total
---------------------------------------------------------------
Pair    | 2.6332     | 2.6332     | 2.6332     |   0.0 | 72.15
Neigh   | 0          | 0          | 0          |   0.0 |  0.00
Comm    | 0.19632    | 0.19632    | 0.19632    |   0.0 |  5.38
Output  | 0.0026291  | 0.0026291  | 0.0026291  |   0.0 |  0.07
Modify  | 0.73648    | 0.73648    | 0.73648    |   0.0 | 20.18
Other   |            | 0.08086    |            |       |  2.22

Nlocal:          10976 ave       10976 max       10976 min
Histogram: 1 0 0 0 0 0 0 0 0 0
Nghost:          23485 ave       23485 max       23485 min
Histogram: 1 0 0 0 0 0 0 0 0 0
Neighs:              0 ave           0 max           0 min
Histogram: 1 0 0 0 0 0 0 0 0 0

Total # of neighbors = 0
Ave neighs/atom = 0
Neighbor list builds = 0
Dangerous builds = 0
=== Phase 3: Tension ===


---------------------------------------------------------------------
      Device Time Info (average): 
---------------------------------------------------------------------
Data Transfer:   0.2114 s.
Neighbor copy:   0.0000 s.
Neighbor build:  0.0005 s.
Force calc:      2.0810 s.
Device Overhead: 0.0343 s.
CPU Neighbor:    0.0003 s.
CPU Cast/Pack:   0.3228 sunfix eq

print '=== Phase 3: Tension ==='
=== Phase 3: Tension ===
reset_timestep 0

# 初期z寸法の記録
variable tmp equal lz
variable lz0 equal ${tmp}
variable lz0 equal 50.7086312769003
variable tmp delete

# z軸変形 + x,yゼロ圧力（Poisson収縮を許容）
fix deform_fix all deform 1 z erate 0.0005 remap x
fix npt_fix all npt temp 300.0 300.0 0.1 x 0.0 0.0 1.0 y 0.0 0.0 1.0 xy 0.0 0.0 1.0 xz 0.0 0.0 1.0 yz 0.0 0.0 1.0

# ひずみ・応力（sigma = -P [GPa]）
variable strain equal (lz-v_lz0)/v_lz0
variable stress equal -pzz/10000

# 欠陥解析用compute
# stress/atom: 単位は bar*Å³（実応力はボロノイ体積で割る必要あり）
compute peratom all stress/atom NULL
compute cna all cna/atom 3.087
compute csym all centro/atom fcc

thermo 100
thermo_style custom step temp v_strain v_stress pxx pyy pzz lx ly lz

fix out1 all print 100 "${strain} ${stress}" file stress_strain.txt screen no
dump 1 all cuDone.

Neighbor list info ...
  update: every = 1 steps, delay = 10 steps, check = yes
  max neighbors/atom: 2000, page size: 100000
  master list distance cutoff = 11.0375
  ghost atom cutoff = 11.0375
  binsize = 5.51875, bins = 10 10 10
  2 neighbor lists, perpetual/occasional/extra = 0 2 0
  (1) compute cna/atom, occasional
      attributes: full, newton on
      pair build: full/bin/atomonly
      stencil: full/bin/3d
      bin: standard
  (2) compute centro/atom, occasional
      attributes: full, newton on
      pair build: full/bin/atomonly
      stencil: full/bin/3d
      bin: standard
Setting up Verlet run ...
  Unit style    : metal
  Current step  : 0
  Time step     : 0.002
Per MPI rank memory allocation (min/avg/max) = 13.52 | 13.52 | 13.52 Mbytes
   Step          Temp         v_strain       v_stress    v_stress_drop  v_drop_from_peak      Pxx            Pyy            Pzz             Lx             Ly             Lz      
         0   299.93501     -1.4012264e-16 -0.06185752     1.3877788e-17  0.06185752     394.59546     -17.130938      618.5752       50.741078      50.786095      50.708631    
       100   298.53716      0.0001        -0.043967205   -0.0089451576   0.043967205    59.299615      287.78373      439.67205      50.765139      50.750348      50.713702    
       200   296.78713      0.0002        -0.03488889    -0.012015648    0.03488889    -32.742981      283.54852      348.8889       50.7558        50.756907      50.718773    
       300   297.60957      0.0003        -0.044237916   -0.0019999665   0.044237916    337.09506     -41.222387      442.37916      50.743078      50.771451      50.723844    
       400   298.97428      0.0004        -0.023107652   -0.018504185    0.023107652   -146.70846      170.64886      231.07652      50.782478      50.729631      50.728915    
       500   297.03331      0.0005        -0.010969113   -0.025535603    0.010969113    219.2071      -344.78681      109.69113      50.732968      50.777297      50.733986    
       600   294.59147      0.0006         0.02170334    -0.04989262     0             -474.11947     -46.842106     -217.0334       50.781778      50.732873      50.739056    
       700   300.21961      0.0007         0.021043866   -0.043079002    0.00065947422 -542.91057     -523.28993     -210.43866      50.758815      50.759543      50.744127    
       800   297.9548       0.0008         0.059058957   -0.072083638    0             -229.73952     -747.07038     -590.58957      50.734884      50.775553      50.749198    
       900   291.45603      0.0009         0.03010413    -0.03881593     0.028954827   -426.75634      12.44345      -301.0413       50.767737      50.729204      50.754269    
      1000   302.86786      0.001          0.031469264   -0.030848386    0.027589693    174.99822     -154.68109     -314.69264      50.72904       50.761797      50.75934     
      1100   300.71655      0.0011         0.0045902617   0.00088636309  0.054468695    284.69329      281.27433     -45.902617      50.731321      50.738076      50.764411    
      1200   294.4389       0.0012        -0.014979751    0.022447289    0 0.0005        -0.010969113   -0.025535603    0.010969113    219.2071      -344.78681      109.69113      50.732968      50.777297      50.733986    
       600   294.59147      0.0006         0.02170334    -0.04989262     0             -474.11947     -46.842106     -217.0334       50.781778      50.732873      50.739056    
       700   300.21961      0.0007         0.021043866   -0.043079002    0.00065947422 -542.91057     -523.28993     -210.43866      50.758815      50.759543      50.744127    
       800   297.9548       0.0008         0.059058957   -0.072083638    0             -229.73952     -747.07038     -590.58957      50.734884      50.775553      50.749198    
       900   291.45603      0.0009         0.03010413    -0.03881593     0.028954827   -426.75634      12.44345      -301.0413       50.767737      50.729204      50.754269    
      1000   302.86786      0.001          0.031469264   -0.030848386    0.027589693    1739721      50.732243      50.794836    
      1800   297.63368      0.0018         0.098564082   -0.05986335     0.011305862   -153.61444     -611.11649     -985.64082      50.712168      50.763835      50.799907    
      1900   298.17649      0.0019         0.11960163    -0.071951145    0             -396.45874     -309.85495     -1196.0163      50.740253      50.723019      50.804978    
      2000   301.89785      0.002          0.10003356    -0.045526645    0.019568071   -98.547595      95.825577     -1000.3356      50.722531      50.728391      50.810049    
      2100   303.12814      0.0021         0.064811379   -0.0042823572   0.054790247    308.27473      123.90029     -648.11379      50.699283      50.742182      50.815119    
      2200   301.32779      0.0022         0.072775415   -0.0034708767   0.046826211    142.2165       922.42008     -727.75415      50.739333      50.678097      50.82019     
      2300   296.13988      0.0023         0.046667458    0.026672116    0.072934169    1115.8067      365.28614     -466.67458      50.668356      50.739318      50.825261    
      2400   303.66868      0.0024         0.080554672    0.00042925519  0.039046955    306.22349      859.72092     -805.54672      50.726734      50.68348       50.830332    
      2500   303.57901      0.0025         0.11632704    -0.028414893    0.0032745832   215.4074       228.40882     -1163.2704      50.708943      50.713515      50.835403    
      2600   299.39887      0.0026         0.16889651    -0.071086339    0             -113.39275     -602.13994     -1688.9651      50.694837      50.735676      50.840474    
      2700   301.10548      0.0027         0.18562376    -0.080238212    0             -986.98941     -383.65556     -1856.2376      50.752535      50.688552      50.845545    
      2800   298.56936      0.0028         0.18701484    -0.072784215    0             -203.75265     -924.92484     -1870.1484      50.700387      50.734439      50.850615    
      2900   299.13019      0.0029         0.19346446    -0.071847554    0             -312.21893     -345.57329     -1934.6446      50.719564      50.701702      50.855686    
      3000   301.04114      0.003          0.18513387    -0.055006926    0.0083305968  -338.4177      -58.850988     -1851.3387      50.721948      50.691323      50.860757    
      3100   298.98327      0.0031         0.16162519    -0.021816865    0.031839277   -4.5177722     -91.405164     -1616.2519      50.694833      50.697909      50.865828    
      3200   300.59772      0.0032         0.15374547    -0.0058401398   0.039718997    361.2971       287.5786      -1537.4547      50.691701      50.695481      50.870899    
      3300   299.84958      0.0033         0.15708629     0.0018609154   0.036378169    245.6428       235.22238     -1570.8629      50.697027      50.686713      50.87597     
      3400   296.11825      0.0034         0.17760723    -0.0089547678   0.015857229    346.21044      143.70927     -1776.0723      50.679451      50.704508      50.881041    
      3500   300.27982      0.0035         0.23001362    -0.049992492    0             -383.87004  4    -0.072784215    0             -203.75265     -924.92484     -1870.1484      50.700387      50.734439      50.850615    
      2900   299.13019      0.0029         0.19346446    -0.071847554    0             -312.21893     -345.57329     -1934.6446      50.719564      50.701702      50.855686    
      3000   301.04114      0.003          0.18513387    -0.055006926    0.0083305968  -338.4177      -58.850988     -1851.3387      50.721948      50.691323      50.860757    
      3100   298.98327      0.0031         0.16162519    -0.021816865    0.031839277   -4.5177722     -91.405164     -1616.2519      50.694833      50.697909      50.865828    
      3200   300.59772      0.0032         0.15374547    -0.0058401398   0.039718997    361.2971       287.5786      -1537.4547      50.691701      50.695481      50.870899    
      3300   299.84958      0.0033         0.15708629     0.0018609154   0.036378169    245.6428       235.22238    50.911466    
      4100   299.38411      0.0041         0.21774377     0.014202303    0.087498535    794.57027      237.47546     -2177.4377      50.644007      50.694893      50.916537    
      4200   298.52263      0.0042         0.19981573     0.036737369    0.10542658     950.43088      1018.5209     -1998.1573      50.668328      50.655443      50.921608    
      4300   302.84378      0.0043         0.19617249     0.044289229    0.10906982     702.74203      969.03263     -1961.7249      50.682261      50.641316      50.926678    
      4400   299.99692      0.0044         0.23762773     0.008836041    0.067614579    942.09809      420.15339     -2376.2773      50.638924      50.68461       50.931749    
      4500   302.06469      0.0045         0.25920464    -0.0098217753   0.04603766     24.091453      302.87965     -2592.0464      50.683858      50.653407      50.93682     
      4600   302.65467      0.0046         0.30264167    -0.047193212    0.0026006359  -233.78881     -400.70613     -3026.4167      50.668216      50.685795      50.941891    
      4700   298.74398      0.0047         0.35840086    -0.092642614    0             -530.92502     -484.95256     -3584.0086      50.679864      50.676324      50.946962    
      4800   300.41513      0.0048         0.35919522    -0.088041683    0             -618.22118     -468.23104     -3591.9522      50.689812      50.666472      50.952033    
      4900   296.31432      0.0049         0.36587349    -0.088416721    0             -177.29871     -417.79483     -3658.7349      50.655663      50.683737      50.957104    
      5000   298.25894      0.005          0.3125828     -0.031656959    0.05329069     63.243447      241.88973     -3125.828       50.670174      50.652687      50.962174    
      5100   300.1368       0.0051         0.31176828    -0.021439994    0.054105204    703.67326      499.99962     -3117.6828      50.641379      50.662516      50.967245    
      5200   300.21246      0.0052         0.28185812     0.016674405    0.084015363    391.90772      840.62325     -2818.5812      50.656082      50.633049      50.972316    
      5300   300.61592      0.0053         0.30436329     0.0049883194   0.061510197    513.83761      519.34684     -3043.6329      50.651435      50.640863      50.977387    
      5400   300.9343       0.0054         0.34799631    -0.027607844    0.017877175   -37.563991      178.14319     -3479.9631      50.648634      50.657645      50.982458    
      5500   296.59781      0.0055         0.42267037    -0.085935332    0             -593.18465     -771.61849     -4226.7037      50.66815       50.6625        50.987529    
      5600   297.66728      0.0056         0.50291434    -0.14615203     0             -1738.5547     -1508.7971     -5029.1434      50.688834      50.666287      50.9926      
      5700   301.73467      0.0057         0.52083857    -0.14783249     0             -1319.1521     -1977.8176     -5208.3857      50.659241      50.702014      50.99767     
      5800   300.29196      0.0058         0.47192455    -0.087645538    0.048914018   -884.06354     -853.04872     -4719.24105204    703.67326      499.99962     -3117.6828      50.641379      50.662516      50.967245    
      5200   300.21246      0.0052         0.28185812     0.016674405    0.084015363    391.90772      840.62325     -2818.5812      50.656082      50.633049      50.972316    
      5300   300.61592      0.0053         0.30436329     0.0049883194   0.061510197    513.83761      519.34684     -3043.6329      50.651435      50.640863      50.977387    
      5400   300.9343       0.0054         0.34799631    -0.027607844    0.017877175   -37.563991      178.14319     -3479.9631      50.648634      50.657645      50.982458    
      5500   296.59781      0.0055         0.42267037    -0.085935332    0             -593.18465     -771.61849     -4226.7037      50.66815       50.6625        50.987529    
      5600   297.66728      0.0056         0.50291434    -0.14615203     0             -1738.5547     -1508.7971     -5029.1434      50.6880   301.98232      0.0064         0.45689082    -0.0360307      0.063947753   -714.93824      289.67843     -4568.9082      50.670197      50.605821      51.033167    
      6500   302.70377      0.0065         0.48112584    -0.054420173    0.039712734   -177.48757     -1128.2105     -4811.2584      50.611631      50.680362      51.038237    
      6600   299.79323      0.0066         0.513897      -0.08609307     0.0069415707  -846.89675     -565.28387     -5138.97        50.659221      50.625104      51.043308    
      6700   301.34518      0.0067         0.52823187    -0.09968861     0             -964.00764     -853.76177     -5282.3187      50.649305      50.638083      51.048379    
      6800   301.68569      0.0068         0.51422659    -0.081453131    0.014005274   -92.434754     -751.08893     -5142.2659      50.614946      50.658185      51.05345     
      6900   296.25809      0.0069         0.45901619    -0.019584478    0.069215683   -90.26864       1134.6547     -4590.1619      50.671671      50.558478      51.058521    
      7000   300.37481      0.007          0.42098715     0.024664306    0.10724472     1667.689       669.41837     -4209.8715      50.561926      50.644672      51.063592    
      7100   304.54942      0.0071         0.41152443     0.040820475    0.11670744     1102.4308      1089.0387     -4115.2443      50.61086       50.591657      51.068663    
      7200   297.41035      0.0072         0.44079765     0.021399809    0.087434218    304.53903      951.56785     -4407.9765      50.629983      50.579237      51.073733    
      7300   303.0581       0.0073         0.53983816    -0.063184595    0              389.96916     -525.87096     -5398.3816      50.57285       50.666309      51.078804    
      7400   302.13967      0.0074         0.56682543    -0.079178399    0             -947.41897     -106.50921     -5668.2543      50.661391      50.587876      51.083875    
      7500   298.31134      0.0075         0.57770114    -0.080396581    0             -328.18936     -897.90053     -5777.0114      50.594946      50.650364      51.088946    
      7600   300.99808      0.0076         0.59759671    -0.091922182    0             -443.71327     -548.81247     -5975.9671      50.620734      50.617171      51.094017    
      7700   301.82921      0.0077         0.54195522    -0.034908352    0.055641494   -411.874       -208.80206     -5419.5522      50.628116      50.599896      51.099088    
      7800   297.16265      0.0078         0.55984357    -0.048235003    0.037753146    283.3236      -269.4663      -5598.4357      50.576244      50.639816      51.104159    
      7900   296.06966      0.0079         0.53474609    -0.015564533    0.062850626   -72.044499      541.23802     -5347.4609      50.629929      50.564684      51.109229    
      8000   302.09594      0.008          0.53985342    -0.0087852381   0.057743293    531.92249      198.83588     -5398.5342      50.589217      50.604634      51.1143      
      8100   303.31756      0.0081         0.54803786    -0.0033183362   0.049558852    397.03836      41.621767     -5480.3786      50.572001      5-106.50921     -5668.2543      50.661391      50.587876      51.083875    
      7500   298.31134      0.0075         0.57770114    -0.080396581    0             -328.18936     -897.90053     -5777.0114      50.594946      50.650364      51.088946    
      7600   300.99808      0.0076         0.59759671    -0.091922182    0             -443.71327     -548.81247     -5975.9671      50.620734      50.617171      51.094017    
      7700   301.82921      0.0077         0.54195522    -0.034908352    0.055641494   -411.874       -208.80206     -5419.5522      50.628116      50.599896      51.099088    
      7800   297.16265      0.0078         0.55984357    -0.048235003    0.037753146    283.3236      -269.4663      -5598.4357      50.576244      50.639816      51.104159    
      7900   296.06966      0.0079         0.53474609    -0.015564533    0.062850626   -72.044499      541.23802     -5347.4609      50.629929      50.564684      5         0.61209354    -0.029224754    0.010969884   -169.24108      420.66326     -6120.9354      50.622135      50.548978      51.149796    
      8800   294.25369      0.0088         0.58430139     0.0010131781   0.038762034    650.18841      297.93955     -5843.0139      50.542844      50.610089      51.154867    
      8900   300.87624      0.0089         0.59271052    -0.0015995021   0.03035291     467.93012      662.76228     -5927.1052      50.582513      50.563629      51.159938    
      9000   300.27561      0.009          0.62763744    -0.027748025    0              53.275355      788.21107     -6276.3744      50.602182      50.549267      51.165009    
      9100   296.80522      0.0091         0.61339636    -0.0069710942   0.014241081    793.49446     -146.13341     -6133.9636      50.532935      50.61312       51.17008     
      9200   302.51048      0.0092         0.66403359    -0.047342125    0             -568.76983      145.53693     -6640.3359      50.618065      50.540023      51.175151    
      9300   298.06281      0.0093         0.68660363    -0.061965386    0             -250.07807     -632.27195     -6866.0363      50.566704      50.603451      51.180222    
      9400   299.01009      0.0094         0.75175721    -0.11424959     0             -728.59574     -846.45507     -7517.5721      50.573876      50.599982      51.185292    
      9500   297.55111      0.0095         0.74131372    -0.091973355    0.010443491   -1070.2585     -440.48162     -7413.1372      50.606224      50.561312      51.190363    
      9600   301.36048      0.0096         0.7426277     -0.080980188    0.0091295117  -39.650719     -887.64755     -7426.277       50.533473      50.627113      51.195434    
      9700   300.87423      0.0097         0.71760889    -0.045409842    0.034148324   -646.10422      135.86299     -7176.0889      50.617894      50.53004       51.200505    
      9800   296.15325      0.0098         0.66961892     0.011111881    0.082138295    587.71574      191.74854     -6696.1892      50.534855      50.580209      51.205576    
      9900   297.41514      0.0099         0.65016349     0.036312605    0.10159372     1026.3915      685.86646     -6501.6349      50.536576      50.558706      51.210647    
     10000   301.84906      0.01           0.66519478     0.025037046    0.086562428    545.66472      1477.3418     -6651.9478      50.593713      50.498677      51.215718    
     10100   299.35907      0.0101         0.6897224      0.008142034    0.062034812    917.15863      192.0682      -6897.224       50.510377      50.585944      51.220788    
     10200   298.23488      0.0102         0.69992095     0.0015322168   0.05183626    -77.48587       637.45925     -6999.2095      50.584167      50.519716      51.225859    
     10300   300.32935      0.0103         0.74700907    -0.03951536     0.0047481377   179.54522     -104.0669      -7470.0907      50.552993      50.556503      51.23093     
     10400   303.17107      0.0104         0.80834999    -0.095197002    0             -314.35183     -663.60227     -8083.4999      50.559457      50.569278      51.236001        50.617894      50.53004       51.200505    
      9800   296.15325      0.0098         0.66961892     0.011111881    0.082138295    587.71574      191.74854     -6696.1892      50.534855      50.580209      51.205576    
      9900   297.41514      0.0099         0.65016349     0.036312605    0.10159372     1026.3915      685.86646     -6501.6349      50.536576      50.558706      51.210647    
     10000   301.84906      0.01           0.66519478     0.025037046    0.086562428    545.66472      1477.3418     -6651.9478      50.593713      50.498677      51.215718    
     10100   299.35907      0.0101         0.6897224      0.008142034    0.062034812    917.15863      192.0682      -6897.224       50.510377      50.585944      51.220788    
     10200   298.23488      0.0102         0.69992095     0.0015322168   0.05183626    -77.48587       637.45925     -6999.2095      50.584167      50.519716      51.225859    
     10300  .062430939    0.13341976     387.20082      1396.3136     -7064.2887      50.58151       50.469234      51.266426    
     11100   302.25095      0.0111         0.73570397     0.037753995    0.10414466     1722.6403      600.78425     -7357.0397      50.471224      50.575382      51.271497    
     11200   299.70426      0.0112         0.74572435     0.032313957    0.094124279    689.4954       1237.4287     -7457.2435      50.533177      50.507198      51.276568    
     11300   302.81851      0.0113         0.78774721    -0.0056350823   0.052101427   -6.0310099      841.10443     -7877.4721      50.562214      50.493529      51.281639    
     11400   301.63915      0.0114         0.86735472    -0.079342124    0              317.35969     -696.15471     -8673.5472      50.494711      50.587951      51.28671     
     11500   297.21807      0.0115         0.89880889    -0.10418845     0             -1225.0132     -122.5829      -8988.0889      50.600794      50.488185      51.291781    
     11600   297.63427      0.0116         0.89837661    -0.097363432    0.00043227548 -550.52002     -865.05544     -8983.7661      50.525329      50.563481      51.296851    
     11700   301.28299      0.0117         0.91219479    -0.103947       0             -379.65053     -700.26499     -9121.9479      50.527824      50.551142      51.301922    
     11800   297.58251      0.0118         0.88662812    -0.069172521    0.025566679   -178.93543      307.54678     -8866.2812      50.554558      50.494531      51.306993    
     11900   300.27988      0.0119         0.8548145     -0.025436298    0.057380293    802.66007     -385.4996      -8548.145       50.469643      50.572938      51.312064    
     12000   302.52222      0.012          0.84075365     0.0020570331   0.071441146    249.40455      805.61233     -8407.5365      50.544546      50.480308      51.317135    
     12100   296.34658      0.0121         0.85866177    -0.0035553118   0.053533022    475.15667      447.008       -8586.6177      50.509885      50.510346      51.322206    
     12200   299.76001      0.0122         0.86192101     0.0048051138   0.050273781    473.14937     -26.929528     -8619.2101      50.476931      50.543327      51.327277    
     12300   298.36411      0.0123         0.89807274    -0.020314058    0.014122056   -391.10592      687.3631      -8980.7274      50.554846      50.475674      51.332347    
     12400   302.22599      0.0124         0.93237496    -0.048114259    0             -14.468864     -644.13502     -9323.7496      50.475895      50.56229       51.337418    
     12500   296.7946       0.0125         0.99500659    -0.10112611     0             -882.5791      -240.13784     -9950.0659      50.548575      50.497093      51.342489    
     12600   299.59703      0.0126         1.004882      -0.10035101     0             -1125.5991     -896.22728     -10048.82       50.54363       50.512607      51.34756     
     12700   303.52312      0.0127         0.99085648    -0.078459294    0.014025553   -337.81781     -1375.4024     -9908.5648      50.483546      50.564826      51.352631    
     12800   299.1035880308      51.317135    
     12100   296.34658      0.0121         0.85866177    -0.0035553118   0.053533022    475.15667      447.008       -8586.6177      50.509885      50.510346      51.322206    
     12200   299.76001      0.0122         0.86192101     0.0048051138   0.050273781    473.14937     -26.929528     -8619.2101      50.476931      50.543327      51.327277    
     12300   298.36411      0.0123         0.89807274    -0.020314058    0.014122056   -391.10592      687.3631      -8980.7274      50.554846      50.475674      51.332347    
     12400   302.22599      0.0124         0.93237496    -0.048114259    0             -14.468864     -644.13502     -9323.7496      50.475895      50.56229       51.337418    
     12500   296.7946       0.0125         0.99500659    -0.10112611     0             -882.5791      -240.13784     -9950.0659      50.548575      50.497093      51.342489    
     12600   299.59703      0.0126   9  -136.13428      203.05211     -9983.148       50.522838      50.478042      51.383056    
     13400   297.65929      0.0134         1.0343413     -0.060324494    0             -384.60428     -273.22753     -10343.413      50.498723      50.504638      51.388127    
     13500   299.07832      0.0135         1.0351843     -0.057149776    0             -140.14246     -717.10443     -10351.843      50.483831      50.519154      51.393198    
     13600   300.70166      0.0136         1.0545027     -0.071506082    0             -1061.4039     -323.96603     -10545.027      50.535112      50.473759      51.398269    
     13700   295.7934       0.0137         1.0483865     -0.059636887    0.0061161921  -22.37701      -606.74832     -10483.865      50.455687      50.53085       51.40334     
     13800   301.66026      0.0138         1.0518056     -0.056721704    0.0026971358  -321.28762      62.598597     -10518.056      50.50089       50.479018      51.40841     
     13900   303.67439      0.0139         1.0152044     -0.01152468     0.039298328    272.51768      504.44935     -10152.044      50.504176      50.456245      51.413481    
     14000   303.12358      0.014          0.99367623     0.018218525    0.060826464    1034.2509      177.24066     -9936.7623      50.431698      50.519661      51.418552    
     14100   300.69891      0.0141         1.0167784      0.0033580644   0.037724294    272.20859      985.44547     -10167.784      50.505107      50.432235      51.423623    
     14200   297.53512      0.0142         1.0263685      0.0010877929   0.028134227    424.24501      415.71062     -10263.685      50.463617      50.477207      51.428694    
     14300   304.49249      0.0143         1.0601449     -0.02650565     0              453.82712     -293.89427     -10601.449      50.440211      50.5154        51.433765    
     14400   295.9718       0.0144         1.0876859     -0.048712158    0             -221.90873      249.56972     -10876.859      50.506516      50.448801      51.438836    
     14500   296.56607      0.0145         1.118685      -0.071361215    0             -19.236237     -634.72473     -11186.85       50.46014       50.501796      51.443906    
     14600   301.13068      0.0146         1.1382181     -0.082522724    0             -460.85741     -335.34018     -11382.181      50.483689      50.478509      51.448977    
     14700   299.02622      0.0147         1.121253      -0.058270994    0.016965082   -525.53064     -54.777176     -11212.53       50.495032      50.458818      51.454048    
     14800   297.6805       0.0148         1.135615      -0.064252051    0.0026030824   54.88079      -501.13542     -11356.15       50.439663      50.504459      51.459119    
     14900   300.89407      0.0149         1.1198777     -0.038047463    0.018340334   -332.25715      337.6235      -11198.777      50.504134      50.432816      51.46419     
     15000   300.63995      0.015          1.1200025     -0.025539622    0.018215546    295.01964      42.494408     -11200.025      50.454656      50.476094      51.469261    
     15100   294.89376      0.0151         1.11     14400   295.9718       0.0144         1.0876859     -0.048712158    0             -221.90873      249.56972     -10876.859      50.506516      50.448801      51.438836    
     14500   296.56607      0.0145         1.118685      -0.071361215    0             -19.236237     -634.72473     -11186.85       50.46014       50.501796      51.443906    
     14600   301.13068      0.0146         1.1382181     -0.082522724    0             -460.85741     -335.34018     -11382.181      50.483689      50.478509      51.448977    
     14700   299.02622      0.0147         1.121253      -0.058270994    0.016965082   -525.53064     -54.777176     -11212.53       50.495032      50.458818      51.454048    
     14800   297.6805       0.0148         1.135615      -0.064252051    0.0026030824   54.88079      -501.13542     -11356.15       50.439663      50.504459      51.459119    
     14900   300.89407      0.0149         1.1198777     -0.03285     -12075.391      50.409826      50.509254      51.499686    
     15700   298.34518      0.0157         1.2523155     -0.10230504     0             -686.71708      51.722509     -12523.155      50.493669      50.418095      51.504757    
     15800   300.83979      0.0158         1.2151626     -0.057197421    0.03715285    -155.15467     -304.48494     -12151.626      50.454176      50.453586      51.509828    
     15900   301.40605      0.0159         1.2233936     -0.055076825    0.028921854    455.54222     -193.33074     -12233.936      50.41142       50.483118      51.514899    
     16000   297.84766      0.016          1.1917459     -0.01625477     0.060569569   -38.340869      743.35096     -11917.459      50.470156      50.402029      51.519969    
     16100   299.51929      0.0161         1.179317       0.0028187206   0.072998476    965.58246      528.7418      -11793.17       50.406999      50.455196      51.52504     
     16200   301.64892      0.0162         1.167735       0.0211066      0.084580524    615.58832      522.85863     -11677.35       50.419492      50.44009       51.530111    
     16300   304.10763      0.0163         1.2038974     -0.0051997937   0.048418127   -90.092526      666.53439     -12038.974      50.470676      50.403255      51.535182    
     16400   298.79873      0.0164         1.2555104     -0.047250097    0              244.74217     -799.10287     -12555.104      50.390412      50.491068      51.540253    
     16500   298.43678      0.0165         1.3390076     -0.11544514     0             -1410.067      -719.88287     -13390.076      50.485271      50.420435      51.545324    
     16600   299.16963      0.0166         1.3618355     -0.12284344     0             -1579.8462     -1287.5102     -13618.355      50.480874      50.441649      51.550395    
     16700   299.12321      0.0167         1.371492      -0.12058227     0             -399.03697     -1727.165      -13714.92       50.386893      50.512595      51.555465    
     16800   300.33384      0.0168         1.3117572     -0.051187997    0.059734819   -749.7458       70.414546     -13117.572      50.485332      50.381455      51.560536    
     16900   303.84305      0.0169         1.2570855      0.0068528526   0.11440648     347.94357      69.056714     -12570.855      50.409259      50.437574      51.565607    
     17000   299.2501       0.017          1.2459627      0.023397286    0.12552924     587.76163      585.49074     -12459.627      50.398757      50.423607      51.570678    
     17100   299.30922      0.0171         1.2565354      0.020546465    0.11495658     485.41033      757.89731     -12565.354      50.431674      50.390083      51.575749    
     17200   302.79163      0.0172         1.2982395     -0.0081071847   0.073252477    634.7343       66.882599     -12982.395      50.39635       50.435459      51.58082     
     17300   295.57742      0.0173         1.3056397     -0.0053331515   0.065852278    65.330838      209.42385     -13056.397      50.421475      50.408512      51.585891    
     17400   299.96386      0.0174         1.3567406     -0.046311015      0.0167         1.371492      -0.12058227     0             -399.03697     -1727.165      -13714.92       50.386893      50.512595      51.555465    
     16800   300.33384      0.0168         1.3117572     -0.051187997    0.059734819   -749.7458       70.414546     -13117.572      50.485332      50.381455      51.560536    
     16900   303.84305      0.0169         1.2570855      0.0068528526   0.11440648     347.94357      69.056714     -12570.855      50.409259      50.437574      51.565607    
     17000   299.2501       0.017          1.2459627      0.023397286    0.12552924     587.76163      585.49074     -12459.627      50.398757      50.423607      51.570678    
     17100   299.30922      0.0171         1.2565354      0.020546465    0.11495658     485.41033      757.89731     -12565.354      50.431674      50.390083      51.575749    
     17200   302.79163      0.0172         1.2982395     -0.0081071847   0.073252477   0.404332      50.393683      51.616316    
     18000   302.47859      0.018          1.3226912      0.012628411    0.063390035    936.89753      132.74799     -13226.912      50.357545      50.429795      51.621387    
     18100   298.31525      0.0181         1.3470475     -0.0026766255   0.03903379     174.09249      824.68148     -13470.475      50.417389      50.365816      51.626458    
     18200   297.73715      0.0182         1.3784051     -0.026017664    0.0076761927   172.48746     -11.653436     -13784.051      50.386767      50.415281      51.631528    
     18300   302.0108       0.0183         1.4188416     -0.05513401     0             -169.93648     -783.34022     -14188.416      50.378065      50.436407      51.636599    
     18400   299.22675      0.0184         1.4898307     -0.11281406     0             -1692.2859     -655.71916     -14898.307      50.457365      50.373854      51.64167     
     18500   302.66387      0.0185         1.5297807     -0.13795215     0             -820.20073     -1708.5785     -15297.807      50.364585      50.468984      51.646741    
     18600   298.9703       0.0186         1.5003776     -0.097119359    0.029403157   -925.56812     -868.30903     -15003.776      50.408122      50.411967      51.651812    
     18700   299.00474      0.0187         1.451525      -0.040132908    0.078255697   -565.95819      57.319653     -14515.25       50.415921      50.376612      51.656883    
     18800   298.71284      0.0188         1.3962731      0.01976499     0.13350766     667.09825      86.181061     -13962.731      50.337167      50.418385      51.661954    
     18900   304.7842       0.0189         1.4039114      0.019956967    0.12586931     534.23672      956.2496      -14039.114      50.398112      50.352058      51.667024    
     19000   296.87141      0.019          1.3990567      0.032448222    0.13072402     713.04209      832.27716     -13990.567      50.3552        50.384961      51.672095    
     19100   298.96261      0.0191         1.3976573      0.038908602    0.13212341     1101.5431      355.99016     -13976.573      50.337733      50.399663      51.677166    
     19200   301.27635      0.0192         1.4509947     -0.0071698372   0.078786009   -86.862975      520.50107     -14509.947      50.413057      50.348818      51.682237    
     19300   300.90376      0.0193         1.5256557     -0.071149401    0.0041250367  -236.93118     -763.64598     -15256.557      50.361208      50.414895      51.687308    
     19400   297.79226      0.0194         1.5311405     -0.072503224    0             -657.21667     -694.78884     -15311.405      50.38059       50.396384      51.692379    
     19500   298.70795      0.0195         1.5301287     -0.071456583    0.0010118485  -552.2878      -465.73797     -15301.287      50.404872      50.372048      51.69745     
     19600   296.52792      0.0196         1.5504703     -0.086788966    0             -135.02125     -581.40544     -15504.703      50.350867      50.412682      51.70252     
     19700   299.39837      0.0197         1.5066499     -0.0374561      0.043820376   -343.1503467      0.032448222    0.13072402     713.04209      832.27716     -13990.567      50.3552        50.384961      51.672095    
     19100   298.96261      0.0191         1.3976573      0.038908602    0.13212341     1101.5431      355.99016     -13976.573      50.337733      50.399663      51.677166    
     19200   301.27635      0.0192         1.4509947     -0.0071698372   0.078786009   -86.862975      520.50107     -14509.947      50.413057      50.348818      51.682237    
     19300   300.90376      0.0193         1.5256557     -0.071149401    0.0041250367  -236.93118     -763.64598     -15256.557      50.361208      50.414895      51.687308    
     19400   297.79226      0.0194         1.5311405     -0.072503224    0             -657.21667     -694.78884     -15311.405      50.38059       50.396384      51.692379    
     19500   298.70795      0.0195         1.5301287     -0.071456583    0.0010118485  -552.2878      -465.73797    51.732946    
     20300   303.77124      0.0203         1.6050273     -0.085891434    0             -1316.7745      215.54603     -16050.273      50.446753      50.292016      51.738016    
     20400   299.40932      0.0204         1.6302018     -0.1011598      0             -81.432648     -1723.7795     -16302.018      50.290722      50.454244      51.743087    
     20500   299.405        0.0205         1.6278568     -0.089041976    0.0023450033  -991.6149      -622.42014     -16278.568      50.405209      50.343295      51.748158    
     20600   302.74146      0.0206         1.6389471     -0.091284562    0             -885.59825     -402.15171     -16389.471      50.387822      50.342054      51.753229    
     20700   296.18979      0.0207         1.5834666     -0.028122449    0.055480444    657.07352     -143.95085     -15834.666      50.301379      50.39284       51.7583      
     20800   301.38448      0.0208         1.5618806      0.000384095    0.077066524    100.74673      932.66634     -15618.806      50.38421       50.294815      51.763371    
     20900   301.47212      0.0209         1.5525227      0.016551302    0.086424347    664.61901      586.35332     -15525.227      50.320417      50.351982      51.768442    
     21000   298.12356      0.021          1.6015551     -0.018266235    0.037391941    807.48395      207.40588     -16015.551      50.304389      50.363864      51.773513    
     21100   300.0988       0.0211         1.6030825     -0.0076798907   0.035864621   -309.87727      709.34321     -16030.825      50.39054       50.289798      51.778583    
     21200   298.25349      0.0212         1.640729      -0.036202049    0              195.23112     -595.17852     -16407.29       50.305342      50.39039       51.783654    
     21300   297.66009      0.0213         1.7032128     -0.088867311    0             -692.06758     -642.58423     -17032.128      50.35547       50.342071      51.788725    
     21400   302.35394      0.0214         1.7040193     -0.082292028    0             -1096.4275     -466.64695     -17040.193      50.401534      50.303402      51.793796    
     21500   297.03399      0.0215         1.6853901     -0.057909542    0.018629156   -2.5396476     -1059.5026     -16853.901      50.286674      50.407449      51.798867    
     21600   295.82293      0.0216         1.6747748     -0.043711454    0.029244471   -541.35127      33.093469     -16747.748      50.374829      50.30103       51.803938    
     21700   295.72485      0.0217         1.6900595     -0.048336847    0.013959792    96.690462      133.96346     -16900.595      50.325347      50.328846      51.809009    
     21800   301.54526      0.0218         1.6745982     -0.021603816    0.029421057    707.64946     -9.5185958     -16745.982      50.274142      50.374261      51.814079    
     21900   301.19171      0.0219         1.6586099      0.0049932528   0.045409412    54.467993      922.65897     -16586.099      50.365841      50.278235      51.81915     
     22000   298.82068      0.022          1.696372      -0.023287214    0.0076472562   583.61414      153.47313     -1696            -692.06758     -642.58423     -17032.128      50.35547       50.342071      51.788725    
     21400   302.35394      0.0214         1.7040193     -0.082292028    0             -1096.4275     -466.64695     -17040.193      50.401534      50.303402      51.793796    
     21500   297.03399      0.0215         1.6853901     -0.057909542    0.018629156   -2.5396476     -1059.5026     -16853.901      50.286674      50.407449      51.798867    
     21600   295.82293      0.0216         1.6747748     -0.043711454    0.029244471   -541.35127      33.093469     -16747.748      50.374829      50.30103       51.803938    
     21700   295.72485      0.0217         1.6900595     -0.048336847    0.013959792    96.690462      133.96346     -16900.595      50.325347      50.328846      51.809009    
     21800   301.54526      0.0218         1.6745982     -0.021603816    0.029421057    707.64946     -9.5185958     -16745.982      50.2600   302.93673      0.0226         1.7604031     -0.045595662    0.0028202682   113.04888     -220.93429     -17604.031      50.295465      50.340706      51.854646    
     22700   299.94868      0.0227         1.7256052     -0.0072431758   0.03761818     62.361975      375.96249     -17256.052      50.313475      50.303083      51.859717    
     22800   296.71577      0.0228         1.7308274     -0.0068424611   0.032395973    309.07639      950.44506     -17308.274      50.333883      50.265351      51.864788    
     22900   296.91642      0.0229         1.7436893     -0.011196355    0.019534138    1022.2582     -51.141512     -17436.893      50.251472      50.349042      51.869859    
     23000   301.21996      0.023          1.7792567     -0.038475303    0             -514.46997      447.43638     -17792.567      50.349005      50.268153      51.87493     
     23100   297.90008      0.0231         1.8317454     -0.076619467    0             -463.63621     -311.5184      -18317.454      50.31555       50.30834       51.880001    
     23200   296.88184      0.0232         1.8695594     -0.097883661    0             -241.27065     -1121.6985     -18695.594      50.271785      50.357912      51.885072    
     23300   301.53632      0.0233         1.8820964     -0.097907543    0             -1159.294       23.987467     -18820.964      50.379549      50.245222      51.890142    
     23400   302.31248      0.0234         1.8501669     -0.056509603    0.031929477   -40.441978     -902.25581     -18501.669      50.270628      50.34302       51.895213    
     23500   297.52991      0.0235         1.8015328     -0.0040445721   0.080563565    202.05552      137.07509     -18015.328      50.287347      50.299821      51.900284    
     23600   295.30799      0.0236         1.8046995     -0.0027815837   0.077396918    40.479187      758.47953     -18046.995      50.335234      50.23712       51.905355    
     23700   301.5963       0.0237         1.8067353      0.0032955772   0.075361068    864.25369     -62.531196     -18067.353      50.233159      50.340822      51.910426    
     23800   297.02877      0.0238         1.8086804      0.0091357852   0.073415976    105.43573      434.03264     -18086.804      50.289233      50.281474      51.915497    
     23900   298.90023      0.0239         1.8645594     -0.034656155    0.017537025   -341.14261      366.74447     -18645.594      50.322167      50.253832      51.920568    
     24000   302.68749      0.024          1.8943257     -0.052915549    0             -200.09988     -977.46798     -18943.257      50.24835       50.349158      51.925638    
     24100   299.29276      0.0241         1.9483115     -0.095244792    0             -1109.7616     -570.85115     -19483.115      50.328548      50.274945      51.930709    
     24200   296.71763      0.0242         1.9794443     -0.11538903     0             -1053.3487     -957.11389     -19794.443      50.311427      50.295143      51.93578     
     24300   303.74301      0.0243         1.9662023     -0.093736465    0.013241983   -184.07362     -1109.5996     -19662.023      50.23195         758.47953     -18046.995      50.335234      50.23712       51.905355    
     23700   301.5963       0.0237         1.8067353      0.0032955772   0.075361068    864.25369     -62.531196     -18067.353      50.233159      50.340822      51.910426    
     23800   297.02877      0.0238         1.8086804      0.0091357852   0.073415976    105.43573      434.03264     -18086.804      50.289233      50.281474      51.915497    
     23900   298.90023      0.0239         1.8645594     -0.034656155    0.017537025   -341.14261      366.74447     -18645.594      50.322167      50.253832      51.920568    
     24000   302.68749      0.024          1.8943257     -0.052915549    0             -200.09988     -977.46798     -18943.257      50.24835       50.349158      51.925638    
     24100   299.29276      0.0241         1.9483115     -0.095244792    0             -1109.7616     -570.85115     -19483.115      50.328548      50.274945     49         1.9634609     -0.064274093    0.015983352   -351.83973     -503.58272     -19634.609      50.263851      50.289128      51.971276    
     25000   299.58025      0.025          2.0224032     -0.11040859     0             -892.18708     -365.79361     -20224.032      50.304684      50.259762      51.976347    
     25100   303.50645      0.0251         2.0266438     -0.10681598     0             -640.1982      -1072.3183     -20266.438      50.260271      50.306093      51.981418    
     25200   302.63096      0.0252         2.0129733     -0.089792559    0.013670518   -683.71376     -582.1836      -20129.733      50.278281      50.279466      51.986489    
     25300   298.83551      0.0253         1.9864698     -0.061262392    0.040173929   -330.49873     -172.69406     -19864.698      50.271043      50.262174      51.99156     
     25400   300.11885      0.0254         1.9767958     -0.041033212    0.049847986    418.17737      164.71364     -19767.958      50.243072      50.265325      51.996631    
     25500   299.34128      0.0255         1.9443064      0.0024713262   0.082337415    495.9325       945.91997     -19443.064      50.261404      50.236927      52.001701    
     25600   301.31814      0.0256         1.9497499      0.012006865    0.076893845    814.88802      801.64584     -19497.499      50.247939      50.239999      52.006772    
     25700   300.87471      0.0257         2.0016206     -0.02497925     0.025023168    549.0402       346.40618     -20016.206      50.238218      50.255152      52.011843    
     25800   302.76352      0.0258         2.0546639     -0.060755166    0             -723.85522      36.357199     -20546.639      50.307965      50.218637      52.016914    
     25900   299.78152      0.0259         2.1289451     -0.1184879      0             -801.37762     -1200.9086     -21289.451      50.252512      50.295103      52.021985    
     26000   297.49218      0.026          2.1210849     -0.10075953     0.0078602013  -1078.2541     -1103.5018     -21210.849      50.271995      50.268925      52.027056    
     26100   301.96803      0.0261         2.0901574     -0.063480674    0.038787696   -792.3345      -133.84019     -20901.574      50.288764      50.229212      52.032127    
     26200   301.29166      0.0262         2.0421757     -0.012578746    0.08676938     597.84233     -275.2321      -20421.757      50.208844      50.281213      52.037197    
     26300   298.19713      0.0263         2.0511958     -0.015126265    0.077749265    513.24899      717.46301     -20511.958      50.257716      50.210818      52.042268    
     26400   298.10618      0.0264         2.0349099      0.0069710539   0.094035172    321.34678      683.13152     -20349.099      50.257868      50.210772      52.047339    
     26500   303.79371      0.0265         2.0449488      0.0069963508   0.08399622     628.19951     -47.644964     -20449.488      50.205587      50.266515      52.05241     
     26600   298.6989       0.0266         2.080188      -0.015199009    0.048757051   -11.990378      80.335966     -20801.88       50.246378      50.226764      52.05748151      50.252512      50.295103      52.021985    
     26000   297.49218      0.026          2.1210849     -0.10075953     0.0078602013  -1078.2541     -1103.5018     -21210.849      50.271995      50.268925      52.027056    
     26100   301.96803      0.0261         2.0901574     -0.063480674    0.038787696   -792.3345      -133.84019     -20901.574      50.288764      50.229212      52.032127    
     26200   301.29166      0.0262         2.0421757     -0.012578746    0.08676938     597.84233     -275.2321      -20421.757      50.208844      50.281213      52.037197    
     26300   298.19713      0.0263         2.0511958     -0.015126265    0.077749265    513.24899      717.46301     -20511.958      50.257716      50.210818      52.042268    
     26400   298.10618      0.0264         2.0349099      0.0069710539   0.094035172    321.34678      683.13152     -20349.099      50.257868      50.210772      52.047339    
     26500-0.042444217    0.021269977    27.774577      373.01142     -21483.071      50.263448      50.186842      52.087906    
     27300   297.75975      0.0273         2.1239678     -0.010827669    0.045609331    857.89847      474.05645     -21239.678      50.208778      50.21829       52.092977    
     27400   297.90356      0.0274         2.119805       0.0018245979   0.049772088    814.87408      612.46342     -21198.05       50.194482      50.220542      52.098048    
     27500   302.29503      0.0275         2.1014185      0.025858082    0.068158609    179.76666      992.98026     -21014.185      50.263967      50.155636      52.103119    
     27600   299.07916      0.0276         2.1622335     -0.026752405    0.0073435732   603.8231      -100.80478     -21622.335      50.187456      50.24807       52.10819     
     27700   301.06008      0.0277         2.2302223     -0.081491719    0             -486.71527     -535.28736     -22302.223      50.216588      50.230715      52.11326     
     27800   298.49795      0.0278         2.2431989     -0.081763259    0             -836.541       -240.68025     -22431.989      50.256856      50.19542       52.118331    
     27900   301.63937      0.0279         2.2299243     -0.061846717    0.013274649   -40.872361     -540.98838     -22299.243      50.190085      50.24811       52.123402    
     28000   296.63686      0.028          2.2179188     -0.045007094    0.0252801      16.38056      -87.532835     -22179.188      50.216003      50.21233       52.128473    
     28100   298.68434      0.0281         2.2020481     -0.024143669    0.041150817    17.205116      323.16494     -22020.481      50.236966      50.17344       52.133544    
     28200   300.69228      0.0282         2.1902827     -0.0081807633   0.052916158    450.93423     -2.5450541     -21902.827      50.190224      50.221067      52.138615    
     28300   300.09138      0.0283         2.2076729     -0.017200408    0.035525997    315.74606      281.35868     -22076.729      50.20294       50.1901        52.143686    
     28400   297.55679      0.0284         2.2080386     -0.0087427819   0.035160258    150.21744      625.42808     -22080.386      50.221966      50.172052      52.148756    
     28500   302.06271      0.0285         2.2255285     -0.013821663    0.017670371    472.07051     -261.38053     -22255.285      50.182625      50.216082      52.153827    
     28600   300.10428      0.0286         2.2713372     -0.048719922    0             -763.62521      154.45385     -22713.372      50.233501      50.178329      52.158898    
     28700   300.05445      0.0287         2.3164574     -0.085216656    0             -425.41826     -754.5093      -23164.574      50.188284      50.231954      52.163969    
     28800   296.21307      0.0288         2.3263835     -0.086824334    0             -390.39611     -721.22861     -23263.835      50.193517      50.217104      52.16904     
     28900   300.13753      0.0289         2.3046992     -0.057662501    0.021684338   -381.20054      196.65865     -23046.992      50.23465       50.158442      52.174111    
     29000   300.754.221067      52.138615    
     28300   300.09138      0.0283         2.2076729     -0.017200408    0.035525997    315.74606      281.35868     -22076.729      50.20294       50.1901        52.143686    
     28400   297.55679      0.0284         2.2080386     -0.0087427819   0.035160258    150.21744      625.42808     -22080.386      50.221966      50.172052      52.148756    
     28500   302.06271      0.0285         2.2255285     -0.013821663    0.017670371    472.07051     -261.38053     -22255.285      50.182625      50.216082      52.153827    
     28600   300.10428      0.0286         2.2713372     -0.048719922    0             -763.62521      154.45385     -22713.372      50.233501      50.178329      52.158898    
     28700   300.05445      0.0287         2.3164574     -0.085216656    0             -425.41826     -754.5093      -23164.574      50.188284      50.231954      52.163969    
     28800   296.21307      0.0288      -1093.3307     -794.83698     -24091.049      50.230029      50.167401      52.204536    
     29600   300.96944      0.0296         2.4335819     -0.12140028     0             -892.21215     -1384.494      -24335.819      50.169514      50.240204      52.209607    
     29700   298.41655      0.0297         2.4176718     -0.095368715    0.015910131   -901.70467     -832.45683     -24176.718      50.199724      50.193771      52.214678    
     29800   299.98488      0.0298         2.3866898     -0.058356128    0.046892089   -436.72984     -135.98717     -23866.898      50.181621      50.183587      52.219748    
     29900   301.65584      0.0299         2.362438      -0.028330428    0.07114391     863.88601      185.13173     -23624.38       50.127133      50.209925      52.224819    
     30000   292.58638      0.03           2.2999127      0.040273468    0.13366924     637.57439      1368.1285     -22999.127      50.181665      50.126234      52.22989     
     30100   302.432        0.0301         2.3386602      0.013435678    0.094921713    785.63574      679.82527     -23386.602      50.149532      50.165291      52.234961    
     30200   300.40406      0.0302         2.3399529      0.020743001    0.093628974    717.08737      229.27544     -23399.529      50.121237      50.202649      52.240032    
     30300   299.9761       0.0303         2.4246851     -0.050268813    0.0088968224  -383.11444      204.65459     -24246.851      50.219559      50.123194      52.245103    
     30400   300.74551      0.0304         2.4821588     -0.092673197    0             -611.19378     -613.98903     -24821.588      50.172243      50.183291      52.250174    
     30500   300.66498      0.0305         2.4866911     -0.08944691     0             -696.48157     -1178.291      -24866.911      50.141031      50.228784      52.255245    
     30600   299.54563      0.0306         2.5066184     -0.10207055     0             -1461.1948     -382.5459      -25066.184      50.227876      50.13386       52.260315    
     30700   299.24023      0.0307         2.4731735     -0.063075395    0.03344499    -347.18834     -521.94819     -24731.735      50.14444       50.191191      52.265386    
     30800   301.69804      0.0308         2.4373072     -0.022147392    0.069311258    436.49756      116.85389     -24373.072      50.130564      50.189468      52.270457    
     30900   299.2152       0.0309         2.3874532      0.030208152    0.11916529     502.41123      1113.459      -23874.532      50.17679       50.110243      52.275528    
     31000   298.78073      0.031          2.4092948      0.019304697    0.097323615    1158.689       608.30672     -24092.948      50.113448      50.167741      52.280599    
     31100   305.4032       0.0311         2.4310537      0.0067851615   0.075564728    331.37454      396.43748     -24310.537      50.136853      50.157853      52.28567     
     31200   300.79966      0.0312         2.4764665     -0.024976226    0.030151989    66.868527      218.06392     -24764.665      50.170413      50.128476      52.290741    
     31300   298.9271       0.0313         2. 
     30600   299.54563      0.0306         2.5066184     -0.10207055     0             -1461.1948     -382.5459      -25066.184      50.227876      50.13386       52.260315    
     30700   299.24023      0.0307         2.4731735     -0.063075395    0.03344499    -347.18834     -521.94819     -24731.735      50.14444       50.191191      52.265386    
     30800   301.69804      0.0308         2.4373072     -0.022147392    0.069311258    436.49756      116.85389     -24373.072      50.130564      50.189468      52.270457    
     30900   299.2152       0.0309         2.3874532      0.030208152    0.11916529     502.41123      1113.459      -23874.532      50.17679       50.110243      52.275528    
     31000   298.78073      0.031          2.4092948      0.019304697    0.097323615    1158.689       608.30672     -24092.948      50.113448      50.167741      52.280599    
     31100   305.4032       0.0311         2.4310537      0.47849     -24721.973      50.129934      50.126151      52.321166    
     31900   304.0723       0.0319         2.5091511     -0.013841209    0.042027175    763.31188      660.42551     -25091.511      50.10791       50.144215      52.326237    
     32000   298.83469      0.032          2.4766252      0.025417709    0.074553053    764.23879      740.91803     -24766.252      50.122102      50.125563      52.331307    
     32100   304.81559      0.0321         2.5531028     -0.038854954    0              44.371975      149.31325     -25531.028      50.146009      50.124548      52.336378    
     32200   298.64631      0.0322         2.6268509     -0.097564562    0             -480.45626     -894.21246     -26268.509      50.118486      50.174855      52.341449    
     32300   298.93355      0.0323         2.7129539     -0.16371636     0             -1498.1264     -1518.8313     -27129.539      50.153987      50.168927      52.34652     
     32400   299.26263      0.0324         2.6733767     -0.11148418     0.039577172   -1562.7656     -1211.1114     -26733.767      50.177597      50.137235      52.351591    
     32500   298.97385      0.0325         2.6298445     -0.060085388    0.083109342   -495.34591     -580.52687     -26298.445      50.122757      50.152842      52.356662    
     32600   299.9989       0.0326         2.5676643      0.0055620025   0.14528956     483.33473      477.35286     -25676.643      50.116104      50.118584      52.361733    
     32700   304.75529      0.0327         2.5635317      0.014998151    0.14942219     672.12301      744.51278     -25635.317      50.126576      50.098536      52.366804    
     32800   298.55432      0.0328         2.5608185      0.026573504    0.15213542     880.04991      455.56637     -25608.185      50.09646       50.123607      52.371874    
     32900   300.10698      0.0329         2.6371502     -0.036958294    0.075803719    238.08238      396.35863     -26371.502      50.124198      50.108555      52.376945    
     33000   299.71829      0.033          2.6479932     -0.030664502    0.064960719   -139.80009     -106.08206     -26479.932      50.124115      50.12236       52.382016    
     33100   300.52217      0.0331         2.686683      -0.055996333    0.026270867    43.107115     -579.99562     -26866.83       50.086373      50.158499      52.387087    
     33200   298.45006      0.0332         2.69573       -0.058155419    0.017223866   -593.84591     -339.05754     -26957.3        50.137107      50.108681      52.392158    
     33300   303.11801      0.0333         2.7183266     -0.080214692    0             -502.47831     -344.8501      -27183.266      50.129279      50.119406      52.397229    
     33400   298.08599      0.0334         2.6947843     -0.054531647    0.023542289    353.81731     -325.82891     -26947.843      50.059605      50.164241      52.4023      
     33500   300.14401      0.0335         2.6626751     -0.019139434    0.055651446    264.77871      617.60726     -26626.751      50.132229      50.068453      52.40737     
     33600   299.81098      0.0336         2.6219534      0.027011172      0.0329         2.6371502     -0.036958294    0.075803719    238.08238      396.35863     -26371.502      50.124198      50.108555      52.376945    
     33000   299.71829      0.033          2.6479932     -0.030664502    0.064960719   -139.80009     -106.08206     -26479.932      50.124115      50.12236       52.382016    
     33100   300.52217      0.0331         2.686683      -0.055996333    0.026270867    43.107115     -579.99562     -26866.83       50.086373      50.158499      52.387087    
     33200   298.45006      0.0332         2.69573       -0.058155419    0.017223866   -593.84591     -339.05754     -26957.3        50.137107      50.108681      52.392158    
     33300   303.11801      0.0333         2.7183266     -0.080214692    0             -502.47831     -344.8501      -27183.266      50.129279      50.119406      52.397229    
     33400   298.08599      0.0334         2.6947843     -0.054531647    0.023542289  50.165613      50.05766       52.437796    
     34200   300.79445      0.0342         2.7972468     -0.074189861    0.018929938   -331.13912     -480.14312     -27972.468      50.080107      50.127522      52.442866    
     34300   302.33793      0.0343         2.7499041     -0.023689493    0.066272547    456.45532     -267.12559     -27499.041      50.057655      50.131825      52.447937    
     34400   299.37402      0.0344         2.7294509      0.0002303885   0.086725761   -91.756652      1025.446      -27294.509      50.128437      50.035792      52.453008    
     34500   296.86488      0.0345         2.7297925      0.0066005455   0.086384178    1007.4673      670.24809     -27297.925      50.040715      50.113208      52.458079    
     34600   301.13101      0.0346         2.7446805      0.0039852395   0.071496159    708.3206       319.34257     -27446.805      50.058508      50.107238      52.46315     
     34700   302.50465      0.0347         2.7845077     -0.023972126    0.031669015   -497.65942      356.27476     -27845.077      50.146331      50.028163      52.468221    
     34800   298.85132      0.0348         2.8138752     -0.041558535    0.0023015312   177.74127     -627.19861     -28138.752      50.032746      50.137915      52.473292    
     34900   298.70277      0.0349         2.8399027     -0.058209539    0             -370.44596     -562.77264     -28399.027      50.06779       50.115396      52.478363    
     35000   302.25118      0.035          2.8591691     -0.073176688    0             -1117.6556     -113.17771     -28591.691      50.139771      50.047742      52.483433    
     35100   301.06181      0.0351         2.8415891     -0.052577249    0.017579977    55.219083     -978.61678     -28415.891      50.025502      50.149981      52.488504    
     35200   296.94922      0.0352         2.841339      -0.047917956    0.017830041   -174.31925      93.410794     -28413.39       50.085073      50.069099      52.493575    
     35300   300.82384      0.0353         2.8188598     -0.018543142    0.04030929    -126.53298      487.13179     -28188.598      50.106883      50.038786      52.498646    
     35400   297.676        0.0354         2.8338338     -0.023078879    0.025335263    544.46272     -75.777411     -28338.338      50.02825       50.114615      52.503717    
     35500   299.06447      0.0355         2.8612343     -0.037335196    0              35.030131      250.52012     -28612.343      50.06015       50.074848      52.508788    
     35600   298.63445      0.0356         2.854654      -0.019757505    0.0065803474  -202.06929      366.51125     -28546.54       50.080674      50.056009      52.513859    
     35700   299.65002      0.0357         2.8744297     -0.030541052    0             -67.995255     -301.47742     -28744.297      50.036449      50.110919      52.518929    
     35800   297.21684      0.0358         2.9001898     -0.047669686    0              113.13506     -179.88997     -29001.898      50.062296      50.071647      52.524       
     35900   301.74794      0.0359         2.9063612     -0.047195183    0             -272.987339      -0.047917956    0.017830041   -174.31925      93.410794     -28413.39       50.085073      50.069099      52.493575    
     35300   300.82384      0.0353         2.8188598     -0.018543142    0.04030929    -126.53298      487.13179     -28188.598      50.106883      50.038786      52.498646    
     35400   297.676        0.0354         2.8338338     -0.023078879    0.025335263    544.46272     -75.777411     -28338.338      50.02825       50.114615      52.503717    
     35500   299.06447      0.0355         2.8612343     -0.037335196    0              35.030131      250.52012     -28612.343      50.06015       50.074848      52.508788    
     35600   298.63445      0.0356         2.854654      -0.019757505    0.0065803474  -202.06929      366.51125     -28546.54       50.080674      50.056009      52.513859    
     35700   299.65002      0.0357         2.8744297     -0.030541052    0             -67.995255     -301.477      52.554425    
     36500   299.3353       0.0365         2.8778226      0.027457399    0.093893033    1062.7166      629.13807     -28778.226      50.024337      50.048834      52.559496    
     36600   302.18733      0.0366         2.8596156      0.046160524    0.1121         1407.7164      770.23473     -28596.156      49.988631      50.076974      52.564567    
     36700   301.74122      0.0367         2.9057369      0.0031699753   0.065978734    239.72748      1172.2379     -29057.369      50.092279      49.986223      52.569638    
     36800   298.51928      0.0368         2.9981414     -0.07943939     0             -81.490055     -309.58031     -29981.414      50.036601      50.069096      52.574709    
     36900   301.71287      0.0369         3.0643869     -0.12988237     0             -795.8467      -1108.5081     -30643.869      50.050397      50.082689      52.57978     
     37000   302.92845      0.037          3.0665753     -0.11598505     0             -1313.5211     -920.58879     -30665.753      50.098375      50.034212      52.584851    
     37100   299.03757      0.0371         3.0657895     -0.10183023     0.00078582378 -812.33382     -985.1809      -30657.895      50.039333      50.078691      52.589921    
     37200   295.8729       0.0372         3.0171087     -0.044731392    0.049466604   -82.413219     -623.74245     -30171.087      50.017374      50.065572      52.594992    
     37300   296.97147      0.0373         3.0177971     -0.040811713    0.048778127   -23.860484      479.84177     -30177.971      50.074145      50.00062       52.600063    
     37400   300.58613      0.0374         2.9690498      0.015152588    0.0975255      491.12894      353.6046      -29690.498      50.02445       50.036539      52.605134    
     37500   295.45741      0.0375         3.0054868     -0.00851804     0.061088444    852.91785      368.83653     -30054.868      49.999137      50.049737      52.610205    
     37600   296.94062      0.0376         3.0187379     -0.0058568467   0.04783741    -318.68121      695.87801     -30187.379      50.084659      49.976676      52.615276    
     37700   301.89431      0.0377         3.0989307     -0.066730278    0              22.88904      -800.97629     -30989.307      50.002131      50.081221      52.620347    
     37800   299.11849      0.0378         3.1294864     -0.084151517    0             -712.14234     -1095.8645     -31294.864      50.026806      50.066384      52.625418    
     37900   299.49115      0.0379         3.1420083     -0.088911274    0             -1381.2463     -201.71981     -31420.083      50.115285      49.969794      52.630488    
[...]
    133900   305.12783      0.1339         9.1311959     -0.017178304    0.032953296   -326.83124     -380.78763     -91311.959      48.592023      48.613055      57.498517    
    134000   297.70978      0.134          9.1070565      0.0063909145   0.057092744    16.717663      32.919393     -91070.565      48.540038      48.636388      57.503588    
    134100   300.7592       0.1341         9.1098919      0.0058308498   0.054257266    4.7237161      53.765944     -91098.919      48.510171      48.661158      57.508659    
    134200   302.95579      0.1342         9.1103209      0.0052790581   0.053828304    141.21139      78.058584     -91103.209      48.508119      48.664343      57.51373     
    134300   297.4804       0.1343         9.1062395      0.0094295178   0.057909675   -158.23254     -333.11931     -91062.395      48.5293        48.64024       57.5188      
    134400   300.44619      0.1344         9.1922318     -0.06879997     0             -922.92283     -767.67939     -91922.318      48.571087      48.63783       57.523871    
    134500   302.67143      0.1345         9.17492       -0.046661114    0.01731176    -642.18097     -655.24957     -91749.2        48.564651      48.630057      57.528942    
    134600   296.61586      0.1346         9.1452792     -0.010556174    0.046952523    503.81179      916.39903     -91452.792      48.531537      48.600384      57.534013    
    134700   300.67412      0.1347         9.1170993      0.018739162    0.075132499    1575.6695      1527.3067     -91170.993      48.450538      48.654204      57.539084    
    134800   300.22881      0.1348         9.0697599      0.05663956     0.12247182     1261.5273      934.69563     -90697.599      48.408849      48.694684      57.544155    
    134900   303.79421      0.1349         9.1749917     -0.04421265     0.017240033   -1098.898      -851.26424     -91749.917      48.478822      48.720046      57.549226    
    135000   299.33861      0.135          9.21229       -0.07098755     0             -1686.2958     -1866.1448     -92122.9        48.528927      48.697794      57.554296    
    135100   299.32731      0.1351         9.2318727     -0.078372215    0             -896.65842     -750.1395      -92318.727      48.589269      48.607876      57.559367    
    135200   296.46234      0.1352         9.1218453      0.032807672    0.11002745     838.76182      1156.7348     -91218.453      48.631231      48.493345      57.564438    
    135300   296.89745      0.1353         9.1096825      0.045314693    0.12219017     1443.1287      1387.1723     -91096.825      48.666778      48.423303      57.569509    
    135400   299.80215      0.1354         9.0908825      0.053979798    0.1409902      676.4484       1038.18739162    0.075132499    1575.6695      1527.3067     -91170.993      48.450538      48.654204      57.539084    
    134800   300.22881      0.1348         9.0697599      0.05663956     0.12247182     1261.5273      934.69563     -90697.599      48.408849      48.694684      57.544155    
    134900   303.79421      0.1349         9.1749917     -0.04421265     0.017240033   -1098.898      -851.26424     -91749.917      48.478822      48.720046      57.549226    
    135000   299.33861      0.135          9.21229       -0.07098755     0             -1686.2958     -1866.1448     -92122.9        48.528927      48.697794      57.554296    
    135100   299.32731      0.1351         9.2318727     -0.078372215    0             -896.65842     -750.1395      -92318.727      48.589269      48.607876      57.559367    
    135200   296.46234      0.1352         9.1218453      0.032807672    0.11002745     838.76182      1156.7348     -9121834    
    136000   303.01987      0.136          9.1960184     -0.021390445    0.053198875    221.36954      27.829122     -91960.184      48.444946      48.679611      57.605005    
    136100   298.75302      0.1361         9.2191862     -0.045826925    0.030031047    39.345235      205.87499     -92191.862      48.527674      48.597989      57.610076    
    136200   302.59063      0.1362         9.2087409     -0.026692035    0.040476376   -325.47946     -322.93813     -92087.409      48.581385      48.567377      57.615147    
    136300   300.50798      0.1363         9.2714866     -0.07325733     0             -633.79273     -730.58467     -92714.866      48.609514      48.552946      57.620218    
    136400   298.54276      0.1364         9.2531955     -0.038734929    0.018291106   -277.35909     -684.62463     -92531.955      48.632668      48.512359      57.625289    
    136500   299.78118      0.1365         9.182527       0.029600822    0.088959546    127.30707      336.52416     -91825.27       48.675962      48.438228      57.630359    
    136600   301.46566      0.1366         9.1908938      0.020478118    0.080592778    853.04548      798.57679     -91908.938      48.680237      48.402592      57.63543     
    136700   297.72081      0.1367         9.1920363      0.013617544    0.079450302    649.14619      685.49041     -91920.363      48.672915      48.408805      57.640501    
    136800   298.88023      0.1368         9.231542      -0.018588991    0.039944564   -197.52448      83.721303     -92315.42       48.683764      48.442025      57.645572    
    136900   302.85012      0.1369         9.2812101     -0.05852645     0             -691.07318     -540.73712     -92812.101      48.638349      48.504812      57.650643    
    137000   297.94621      0.137          9.2854637     -0.053835477    0             -388.41351     -610.48332     -92854.637      48.570645      48.568807      57.655714    
    137100   298.10268      0.1371         9.2768768     -0.039479541    0.0085868763   100.88668      293.53374     -92768.768      48.494681      48.60635       57.660785    
    137200   302.43924      0.1372         9.2439623     -0.0030429067   0.041501367    377.82484      636.84135     -92439.623      48.413541      48.673589      57.665855    
    137300   299.50827      0.1373         9.2172398      0.018254885    0.068223832    816.36495      578.41698     -92172.398      48.306705      48.767375      57.670926    
    137400   298.45822      0.1374         9.2644961     -0.027871343    0.020967535    6.2826797     -233.5525      -92644.961      48.225164      48.87717       57.675997    
    137500   299.01446      0.1375         9.2699851     -0.024614533    0.015478534   -950.97396     -1580.9313     -92699.851      48.16358       48.981126      57.681068    
    137600   300.93085      0.1376         9.2505755      0.00076330753  0.034888206   -1053.5914     -1162.5801     -92505.755      48.185505      48.948618      57.686139    
    137700   298.94143      0.1377         9.2626441     -0.0042445788   0.022819532    86.914015      228.1763      -92626.441       -388.41351     -610.48332     -92854.637      48.570645      48.568807      57.655714    
    137100   298.10268      0.1371         9.2768768     -0.039479541    0.0085868763   100.88668      293.53374     -92768.768      48.494681      48.60635       57.660785    
    137200   302.43924      0.1372         9.2439623     -0.0030429067   0.041501367    377.82484      636.84135     -92439.623      48.413541      48.673589      57.665855    
    137300   299.50827      0.1373         9.2172398      0.018254885    0.068223832    816.36495      578.41698     -92172.398      48.306705      48.767375      57.670926    
    137400   298.45822      0.1374         9.2644961     -0.027871343    0.020967535    6.2826797     -233.5525      -92644.961      48.225164      48.87717       57.675997    
    137500   299.01446      0.1375         9.2699851     -0.024614533    0.015478534   -950.97396     -1580.9313     -92699.851      48.16358       1301      0.1383         9.2740007     -0.02071053     0.011462972   -117.02409     -195.03611     -92740.007      48.689831      48.399151      57.721635    
    138400   298.77306      0.1384         9.2420501      0.0089954959   0.043413604    418.28301      307.19708     -92420.501      48.624218      48.434073      57.726706    
    138500   298.21482      0.1385         9.2024895      0.041806527    0.082974202    894.735        753.97363     -92024.895      48.541692      48.482263      57.731777    
    138600   304.49779      0.1386         9.2678832     -0.021856446    0.017580453    403.20372      201.73649     -92678.832      48.470131      48.590192      57.736848    
    138700   299.17716      0.1387         9.2820016     -0.034039071    0.0034620838   167.13821     -154.11082     -92820.016      48.387253      48.678175      57.741918    
    138800   298.52268      0.1388         9.2961441     -0.03629214     0             -426.19907     -417.72827     -92961.441      48.361223      48.710369      57.746989    
    138900   298.09215      0.1389         9.2841761     -0.021143658    0.011967972   -181.44805     -388.42883     -92841.761      48.370342      48.711903      57.75206     
    139000   302.80111      0.139          9.3529024     -0.078207393    0             -194.76533     -357.95044     -93529.024      48.46431       48.601976      57.757131    
    139100   298.77127      0.1391         9.2828756     -0.0060908381   0.070026837    145.29526      348.6472      -92828.756      48.579628      48.460371      57.762202    
    139200   302.81682      0.1392         9.3217545     -0.041126739    0.031147898   -96.898071      140.92759     -93217.545      48.679646      48.371682      57.767273    
    139300   300.71711      0.1393         9.3129118     -0.028392875    0.039990655   -44.899931      279.0616      -93129.118      48.671235      48.368385      57.772344    
    139400   303.77651      0.1394         9.2796299      0.0086469652   0.073272512    166.64071      42.774842     -92796.299      48.610622      48.440322      57.777414    
    139500   297.46444      0.1395         9.3094488     -0.010475989    0.043453625    178.88521     -43.924473     -93094.488      48.535247      48.515301      57.782485    
    139600   301.9989       0.1396         9.2897364      0.011421758    0.063166059    253.98012      15.830759     -92897.364      48.500719      48.529289      57.787556    
    139700   303.06716      0.1397         9.2449206      0.05252942     0.10798182     181.89365     -58.417184     -92449.206      48.540043      48.48691       57.792627    
    139800   298.3346       0.1398         9.2475165      0.045070755    0.10538592    -258.17075     -256.77053     -92475.165      48.59152       48.450331      57.797698    
    139900   294.87753      0.1399         9.3246322     -0.027999356    0.028270195   -789.67614     -346.84593     -93246.322      48.63915       48.415121      57.802769    
    140000   303.05971      0.14           9.3703693     -0.071989787    0             -900.61054     -553.68547     -93703.693      48.68935       48.376826       -93129.118      48.671235      48.368385      57.772344    
    139400   303.77651      0.1394         9.2796299      0.0086469652   0.073272512    166.64071      42.774842     -92796.299      48.610622      48.440322      57.777414    
    139500   297.46444      0.1395         9.3094488     -0.010475989    0.043453625    178.88521     -43.924473     -93094.488      48.535247      48.515301      57.782485    
    139600   301.9989       0.1396         9.2897364      0.011421758    0.063166059    253.98012      15.830759     -92897.364      48.500719      48.529289      57.787556    
    139700   303.06716      0.1397         9.2449206      0.05252942     0.10798182     181.89365     -58.417184     -92449.206      48.540043      48.48691       57.792627    
    139800   298.3346       0.1398         9.2475165      0.045070755    0.10538592    -258.17075     -256.77053     -92475.165      48.59152       48.450331      57.797698 9.2844139      0.015619445    0.093154596   -134.85859     -418.89863     -92844.139      48.370197      48.647019      57.838265    
    140700   300.26758      0.1407         9.2517779      0.048941088    0.1257905      775.49124      591.10398     -92517.779      48.337991      48.644979      57.843336    
    140800   299.91526      0.1408         9.3342744     -0.024879597    0.043294026    735.62835      809.169       -93342.744      48.346228      48.627417      57.848407    
    140900   301.57484      0.1409         9.2950145      0.011418598    0.082553998    456.46981      800.94728     -92950.145      48.352508      48.624738      57.853477    
    141000   301.10692      0.141          9.3438603     -0.040078147    0.033708158   -57.756089     -169.16282     -93438.603      48.356414      48.655304      57.858548    
    141100   297.4513       0.1411         9.3557114     -0.04925631     0.021857043   -361.24686     -754.88064     -93557.114      48.3402        48.686783      57.863619    
    141200   301.07557      0.1412         9.4134627     -0.093411077    0             -773.74524     -812.25398     -94134.627      48.327776      48.706374      57.86869     
    141300   298.49548      0.1413         9.3353361     -0.0081523566   0.078126598    29.505423     -594.47494     -93353.361      48.271264      48.735736      57.873761    
    141400   299.45162      0.1414         9.2586917      0.066319415    0.15477095     809.78484      691.37812     -92586.917      48.258072      48.692608      57.878832    
    141500   302.24406      0.1415         9.2501641      0.062106593    0.16329856     833.67958      1162.3033     -92501.641      48.294728      48.657173      57.883903    
    141600   299.43094      0.1416         9.3105223      0.0043592564   0.10294039     398.72751     -54.922181     -93105.223      48.336585      48.634788      57.888973    
    141700   297.06521      0.1417         9.3384935     -0.014940416    0.074969158   -1195.4975     -704.95651     -93384.935      48.419884      48.595837      57.894044    
    141800   304.43554      0.1418         9.3871055     -0.058269322    0.026357142   -1710.964      -1553.8017     -93871.055      48.469322      48.570352      57.899115    
    141900   296.44131      0.1419         9.3098831      0.020439933    0.10357953    -210.90888     -76.432178     -93098.831      48.46251       48.518791      57.904186    
    142000   299.08749      0.142          9.2707009      0.052306225    0.14276176     1706.8255      1456.5707     -92707.009      48.431033      48.46741       57.909257    
    142100   302.6271       0.1421         9.2309527      0.079578518    0.18250992     1940.8374      2103.5041     -92309.527      48.456951      48.433868      57.914328    
    142200   299.85223      0.1422         9.3412631     -0.037951824    0.072199529    480.20508      774.39896     -93412.631      48.464139      48.482297      57.919399    
    142300   295.44391      0.1423         9.3749651     -0.067690878    0.038497573   -902.14559     -670.67719     -93749.651      48.423285      48.57332       57.92447     
    14336585      48.634788      57.888973    
    141700   297.06521      0.1417         9.3384935     -0.014940416    0.074969158   -1195.4975     -704.95651     -93384.935      48.419884      48.595837      57.894044    
    141800   304.43554      0.1418         9.3871055     -0.058269322    0.026357142   -1710.964      -1553.8017     -93871.055      48.469322      48.570352      57.899115    
    141900   296.44131      0.1419         9.3098831      0.020439933    0.10357953    -210.90888     -76.432178     -93098.831      48.46251       48.518791      57.904186    
    142000   299.08749      0.142          9.2707009      0.052306225    0.14276176     1706.8255      1456.5707     -92707.009      48.431033      48.46741       57.909257    
    142100   302.6271       0.1421         9.2309527      0.079578518    0.18250992     1940.8374      2103.5041     -92309.527      48.456951      48.433868      57.914328    
    142200   299.8522     0.25342007    -52.92293       140.05812     -91600.426      47.783082      49.096915      57.954895    
    143000   301.55012      0.143          9.0193632      0.24047234     0.39409943    -258.86349     -576.90068     -90193.632      47.64398       49.223327      57.959966    
    143100   302.70839      0.1431         8.8443844      0.37679431     0.56907823     431.04518     -736.0359      -88443.844      47.602449      49.198606      57.965036    
    143200   305.00464      0.1432         8.6437468      0.50768027     0.76971582     858.02266     -473.99192     -86437.468      47.819831      48.909845      57.970107    
    143300   312.09723      0.1433         8.4234425      0.63283232     0.99002012     407.72724     -81.957572     -84234.425      48.104118      48.532988      57.975178    
    143400   306.1888       0.1434         8.0930814      0.834333       1.3203813     -710.46268      377.82798     -80930.814      48.234066      48.330033      57.980249    
    143500   301.25067      0.1435         7.8056558      0.96527488     1.6078069     -711.30267      140.67119     -78056.558      48.12555       48.383176      57.98532     
Fix halt condition for fix-id halt_peak_fix met on step 143600 with value 1
    143600   302.96523      0.1436         7.217359       1.347892       2.1961037     -573.47848      592.88916     -72173.59       47.814831      48.568942      57.990391    
Loop time of 285.496 on 1 procs for 143600 steps with 10976 atoms

Performance: 86.916 ns/day, 0.276 hours/ns, 502.984 timesteps/s, 5.521 Matom-step/s
99.7% CPU use with 1 MPI tasks x 1 OpenMP threads

MPI task timing breakdown:
Section |  min time  |  avg time  |  max time  |%varavg| %total
---------------------------------------------------------------
Pair    | 157.39     | 157.39     | 157.39     |   0.0 | 55.13
Neigh   | 0.10289    | 0.10289    | 0.10289    |   0.0 |  0.04
Comm    | 10.957     | 10.957     | 10.957     |   0.0 |  3.84
Output  | 62.984     | 62.984     | 62.984     |   0.0 | 22.06
Modify  | 49.443     | 49.443     | 49.443     |   0.0 | 17.32
Other   |            | 4.622      |            |       |  1.62

Nlocal:          10976 ave       10976 max       10976 min
Histogram: 1 0 0 0 0 0 0 0 0 0
Nghost:          21698 ave       21698 max       21698 min
Histogram: 1 0 0 0 0 0 0 0 0 0
Neighs:              0 ave           0 max           0 min
Histogram: 1 0 0 0 0 0 0 0 0 0
FullNghs:  5.06075e+06 ave 5.06075e+06 max 5.06075e+06 min
Histogram: 1 0 0 0 0 0 0 0 0 0

Total # of neighbors = 5060748
Ave neighs/atom = 461.07398
Neighbor list builds = 268
Dangerous builds = 0


---------------------------------------------------------------------
      Device Time Info (average): 
---------------------------------------------------------------------
Data Transfer:   12.4905 s.
Neighbor copy:   0.0053 s.
Neighbor build:  0.1094 s.
Force calc:      124.8723 s.
Device Overhead: 1.8955 s.
CPU Neighbor:    0.0721 s.
CPU Cast/Pack:   18.7766 s.
CPU Driver_Time: 1.4803 s.
CPU Idle_Time:   109.0982 s.
Average split:   1.0000.
Max Mem / Proc:  42.54 MB.
Prefetch mode:   None.
Vector width:    32.
Lanes / atom:    4.
Pair block:      256.
Neigh block:     128.
Neigh mode:      Hybrid (binning on host) with subgroup support.
Neigh sorting:   Unavailable or disabled.
---------------------------------------------------------------------

Total wall time: 0:04:49
            |       |  1.62

Nlocal:          10976 ave       10976 max       10976 min
Histogram: 1 0 0 0 0 0 0 0 0 0
Nghost:          21698 ave       21698 max       21698 min
Histogram: 1 0 0 0 0 0 0 0 0 0
Neighs:              0 ave           0 max           0 min
Histogram: 1 0 0 0 0 0 0 0 0 0
FullNghs:  5.06075e+06 ave 5.06075e+06 max 5.06075e+06 min
Histogram: 1 0 0 0 0 0 0 0 0 0

Total # of neighbors = 5060748
Ave neighs/atom = 461.07398
Neighbor list builds = 268
Dangerous builds = 0
Total wall time: 0:04:49
