(written by ASE)

4296 atoms
2 atom types

0.0      31.515932880500621  xlo xhi
0.0      31.066736431430968  ylo yhi
0.0      64.017824638055174  zlo zhi

Atoms # atomic

     1   1   0.0016826297053104203   -0.032409295900517686      33.301488310112603
     2   1      1.9543866210907845       1.331987571135103      34.863781277408556
     3   1   -0.084645492390939131   -0.092196565154912924       36.20201159938302
     4   1      1.9570529974410962      1.4272687302493696      37.750672478522148
     5   1   -0.038991589519203528   -0.014883725680753579      39.072766613513473
     6   1      1.9419841525601198      1.4112007162570723      40.437970514350788
     7   1    0.049644093744544371    -0.06100991256323908      41.957540375405081
     8   1      1.9503140779195109      1.4351233918922572      43.481761028681284
     9   1   -0.028639046519407602    -0.01654605892053251      44.885243505928962
    10   1      2.0406411694869844      1.4018159444173475      46.239939545782406
    11   1   -0.016707385826410494  -0.0074777514198443532      47.693171656048051
    12   1      1.9399310809461077      1.4572480519338769      49.107550028669344
    13   1    0.020336879607804281   -0.034927138353186164       50.53985128603982
    14   1      1.9682048205600955      1.4395466603382228      51.988048611323912
    15   1    0.028113959722713695      0.0912031592838001      53.405862157425389
    16   1      1.9572566778615463      1.4088573015864798      54.817614605755587
    17   1    0.050521531885008159    0.065705640885267078      56.182805285470558
    18   1      2.0740358539465213      1.4487969633187159      57.816351689626153
    19   1    -0.01951611544607515     0.04605071693066453      59.223321423753035
    20   1      1.8676518301335012      1.3781724521245633      60.616465268591817
    21   1   -0.013266568511462282    0.034525883999188781      62.071850058492402
    22   1    0.011904372374231661      2.8606703470720203      33.354789421368444
    23   1      1.9891233620626614      4.1920361643448425      34.879320466307234
    24   1    0.014303553549127919      2.7683666652441796      36.256930471660787
    25   1      1.9366691144927657      4.2321886280932839      37.704145575777041
    26   1    0.012854175549440608      2.8962201875743294      39.098770325547214
    27   1       1.977536735918922      4.1999879811391247      40.524467507291973
    28   1     0.01731083141857034      2.8250108893712413      42.060866955666647
    29   1      2.0088127376223399       4.284769141928515      43.449937917814324
    30   1    0.050180797205320628       2.870840594722547      44.853224855651888
    31   1      1.9442712795557646      4.1726776131349483      46.286399121172913
    32   1    -0.10679301813474162      2.8155524359157487      47.661424395605394
    33   1      2.0395645133130751      4.3172001736257792      49.154126784182978
    34   1    0.092569713631786621      2.8032859719240877      50.503534588232057
    35   1      1.9513361207974356      4.3424047185812675      52.027696779298523
    36   1   -0.079068287699551612      2.8082294718245775      53.444488459536828
    37   1      1.9053928447393536      4.2910475427480526      54.860037750869559
    38   1    0.019350797847651108       2.818636014159801      56.194901691658679
    39   1      1.9106894560704588      4.2282650271759836      57.648141863559516
    40   1    0.050227788775338802      2.8042461981424522      59.141475922552814
    41   1      1.9969997797135894      4.2834650556457623      60.597561918851994
    42   1    0.019950148941980821      2.7797980455266318      62.043373453542948
    43   1   -0.051086159068478125      5.7076946614038411      33.334279110038445
    44   1      1.8838804581684994      6.9902325702302317      34.742063764483817
    45   1   0.0092771454993416103      5.6605757028228831       36.20865437859063
    46   1      1.9829785545770913      7.1079474687932223      37.737567414273244
    47   1   -0.053381301155595799      5.5916826545110503      39.065307688538113
    48   1      1.9148421240154747      7.0556818022756529      40.521423432130923
    49   1     -0.0474231066188242      5.6030426172385868      41.977492024002458
    50   1      1.9539442474125863      7.1499538689539062      43.402431733344521
    51   1   -0.017233641358769737      5.6324732017070023      44.787227241315634
    52   1      1.9467914820065859      7.0359889499423476       46.29361458002446
    53   1      0.1084111002018807      5.5748083154556847      47.713655490712483
    54   1      2.0313491471104173      7.0359407246491346      49.106471767440105
    55   1    0.017246868339161128      5.6536571990399596      50.737751528640878
    56   1       2.049580849298009      7.0085885796783751      52.118238196170452
    57   1   -0.016992208992445662      5.6983271710397654       53.37933830141683
    58   1       1.990487632942505      7.0539935796561339      54.919042050674221
    59   1    0.028808786326334369       5.674774307601048      56.376806633928169
    60   1      1.9977193978025631      6.9948810684099447      57.781277432228116
    61   1   -0.030426760368518775      5.6435398634499609      59.143436052059954
    62   1       1.960510668867224      6.9994159961110265      60.595808260701666
    63   1    0.017917596512714028      5.6583305874840173      62.030082475592693
    64   1    0.033290256022216295      8.5582932525542699      33.345686790125193
    65   1      1.9141990506845037      9.9057897680468745      34.808873407896073
    66   1   0.0098798670161644592      8.4682907340860911      36.194339235426526
    67   1      1.9977468148492803      9.9180539673766628      37.754269658918041
    68   1   -0.022115036893260054      8.5262571701584324      39.088847677907246
    69   1      2.0704419786137649       9.906329150451322      40.542549031264009
    70   1    0.046832655255403505      8.4717017243039674      42.051019789217669
    71   1      1.9469217857436021      9.8723920411995163      43.419634985941016
    72   1    0.031690056216260212       8.580374304503442      44.869630360906513
    73   1      1.9636654513130463      9.8527059540503057      46.277380802889802
    74   1    0.046367781965145613      8.4684541571558842      47.743325382835692
    75   1      1.9923652464259585      9.7674585617351628      49.078335791268188
    76   1   -0.002264617127554075      8.3719007800555953      50.501766320490113
    77   1      1.9750240771552758      9.8512283844549131      51.976147361595658
    78   1   0.0022692664723690348      8.4594494996835152      53.365746823935204
    79   1      1.9875087309385073      9.9298819074396345      54.865739738132639
    80   1  -0.0046390063145415172      8.5622384802665348      56.321755794452685
    81   1      1.9203171469980269      9.8541237913425022      57.666115750445329
    82   1   -0.034479499116166809      8.5490775087540545      59.152379238963555
    83   1      1.8866718199831043      9.8950876830258157       60.58951935865732
    84   1    0.024658049535221382      8.4674540901766857      61.997951343143534
    85   1   -0.044534891301654264      11.287936757001875      33.396829509432258
    86   1      1.9590066900223586      12.700954771944927      34.704544123370063
    87   1    0.031456402733929287       11.29596378936481       36.30290196320653
    88   1      1.9842278379239759       12.71311970906941      37.681874911374955
    89   1   -0.017088965699708837      11.255316559992744      39.116424826153633
    90   1      1.9360638341279623      12.708755474533236       40.54736513801091
    91   1   -0.027003512157169642      11.349698655800461      41.930262482688036
    92   1      1.9113278446940298       12.68617511938481      43.416842149545396
    93   1   -0.066445660134363135      11.372453913341964      44.723541582763808
    94   1      1.9829724506742454      12.719697048895643      46.319501071412446
    95   1   -0.057445449065709468      11.366714257242997      47.688479421267445
    96   1      1.9777093046755683       12.71828885376817      49.206549737409794
    97   1    0.045197145633631336      11.309846016341783      50.562905459084583
    98   1      1.9812352561826887      12.738290927923421      52.030426503042357
    99   1   -0.069305903082238968      11.315548314377629      53.449159443455493
   100   1      2.0083461704023073       12.68978691417645      54.926466913650302
   101   1    0.069631120323170259      11.268918285958781      56.369973238136339
   102   1      2.0306053419546579      12.679723417871228       57.68252760644426
   103   1    0.051086293716104882      11.316722212360375      59.058818536572836
   104   1       1.919240136002526      12.792481201137353      60.487611254847423
   105   1    0.025958488178982858      11.289245774466336       61.97395308287858
   106   1   0.0099142354763198833      14.124764340056295      33.317091606366638
   107   1      1.8965423007449971      15.534733572947484      34.837705374353675
   108   1  -0.0043375923409643491      14.123084108595281      36.351778032727672
   109   1      2.0234195036237397      15.546815646774398      37.631569080360407
   110   1    0.028930098372025748      14.101556964367461      39.126636402355714
   111   1      1.9808917966596222      15.634724753827328      40.586351280157125
   112   1    0.029412802467560912      14.192422911748668      41.961464780708454
   113   1      1.8965758979834748      15.505599127488404       43.33949238432109
   114   1    0.016106641456997688      14.135352808559599      44.818124006317795
   115   1      1.9750387339403901      15.403946097185647      46.190021524182313
   116   1  -0.0081536818470271111      14.194295494088474      47.594339501981537
   117   1      1.9364799099932519      15.541102579289552      49.125127472709927
   118   1   -0.052353187033143893       14.18573535508526        50.5225424761434
   119   1      1.9810208097475377      15.521464959120904      52.048833288784266
   120   1   -0.054036314753405028      14.151369367504548      53.488667421848938
   121   1      1.9865166224052293      15.499417712713155      54.943022926880893
   122   1    0.046522985151163654      14.118359622037513      56.316456812449545
   123   1      1.9612523265756598       15.47067530719157      57.717083787738439
   124   1    0.025525830048734873      14.096794360134941       59.14594946913153
   125   1      1.9502140128663343      15.615887703879075      60.473508849257492
   126   1   -0.033336913063509784       14.03182075444918      62.005212266346867
   127   1   -0.038721071354321485      16.926316710525391       33.39551400707429
   128   1      2.0376709243925779      18.342473204878811      34.848781353971702
   129   1   -0.017846368255929831      16.952800856382719      36.233146927415881
   130   1      2.0003508718149559      18.329127937596439      37.671910783295672
   131   1   -0.066633809996153412      16.919207233213974      39.036495271071267
   132   1      1.9224055799960453      18.329893874528501      40.527774025050469
   133   1 -0.00060402260058018808      16.969023114807648      41.901284929721221
   134   1      2.0689895041932855      18.377959906897768      43.408446382171419
   135   1    -0.05502048384602759      16.918611104059941      44.787430271748732
   136   1      1.9137829273292759      18.343367531477718      46.308823852289152
   137   1    -0.11859736719821141      16.967255020942883      47.617700750554519
   138   1      1.9692083155555455      18.411748898893272      49.170788067721801
   139   1    0.013764084060903898      16.951910853441507      50.551044423227872
   140   1      1.9901334994589872      18.299810038640793      52.021397479454897
   141   1    0.086056265736447382      16.925795010650202       53.33447578541935
   142   1      1.9714402422871498      18.401722278935676      54.846326048235234
   143   1    0.073070193562813038      16.886671997916832      56.284533780015082
   144   1      2.0192150963134043      18.284056930117984      57.644192356894422
   145   1    0.083730053670141705      17.023083479055625      59.135309029514772
   146   1      1.9215335835289757      18.406056301520355      60.595853660749391
   147   1   -0.060691722845095476      16.926076152046271      62.110159023833319
   148   1    -0.05030039357693894      19.801137326408615      33.354149248043811
   149   1      1.9712495925508717      21.154783416401472      34.859023664766532
   150   1    0.011562111776313918      19.737338538370789      36.264296323067541
   151   1      1.9603570787443796      21.221667947528843      37.596325211589019
   152   1   -0.015447735247885123      19.725093545314728       39.11127948778001
   153   1      2.0370836597553188      21.224584824976077      40.492266337035844
   154   1  -0.0018186619233335095      19.782935256013296       41.94444244208136
   155   1      1.8817243677568114      21.176501600827343      43.458196278309529
   156   1     0.11264488516512441      19.644953967666687      44.924056538877757
   157   1       1.849853428155517      21.283485921011582      46.266186678998189
   158   1     0.01231741178385385      19.760228553163067      47.772474685832826
   159   1      2.0650599986544518      21.117322875084646      49.144389064666946
   160   1   -0.017166060409224426      19.737283635219207      50.555614153378166
   161   1      1.9876355800404555      21.172738032107347      51.973580919206775
   162   1    -0.13903490715349454       19.77039949790802      53.413450947093068
   163   1      1.9627857004988587      21.260390359845033        54.8516297866556
   164   1    0.034101636701479025      19.747033186257738      56.317721403843969
   165   1      1.9620912256275458      21.230076555412278      57.669684440023474
   166   1   0.0045639766343840722      19.694435433648479      59.213736296346511
   167   1      1.9573599974588713      21.180703762551722        60.6270334098894
   168   1    -0.04393267291883176      19.707460259338042       62.03674123909763
   169   1    0.087690131011609135      22.575149323069176      33.375536452908982
   170   1      2.1035919456424215        24.0145987348576      34.801883403544004
   171   1  -0.0033801983868064545      22.691356742365183      36.287161216541605
   172   1      1.9686350557140604      24.019805023757471      37.625888694241453
   173   1   -0.032252589819992461       22.61419382893536      39.126146569403772
   174   1      1.9580939180460259      24.074390183044454      40.371157691848502
   175   1    0.011939715027926658      22.624702007613848      42.024519002983823
   176   1      1.9619698228299158      24.005382521497424      43.448178429240869
   177   1    0.020120651649996758      22.493234104600294      44.797734788008604
   178   1      1.9500626872638303      24.113958781523095      46.296162729412032
   179   1    0.021475008691716174       22.63372904017411       47.74382421987859
   180   1      1.9866802342275456      24.053308233251165      49.034182502809749
   181   1    0.079606139882691093      22.696188484960715      50.592866177434878
   182   1       1.950504018545788       23.95716593813275      51.985795201359366
   183   1   -0.011065580337568893      22.580797261296251      53.406929565342566
   184   1      1.9994629774618398      24.011472317004117       54.87401050112009
   185   1    0.072089585397322936      22.488578203547707      56.313090320298805
   186   1      1.9498502007484635      23.985407756619644      57.757976731290832
   187   1    0.055586368958591204      22.540746740120824      59.153907722067373
   188   1      2.0100329068021039      23.956635392423919      60.580617094873745
   189   1     -0.0365206082902131      22.584337948876122      62.053702406040273
   190   1    0.063576368910778447      25.481525066270098      33.320744372710038
   191   1      1.9629711476345868       26.94235804223036      34.839335799723138
   192   1    0.043876360058217996      25.428032186718987      36.186705333780466
   193   1      1.9630997285530025      26.846902841628172      37.589670551420895
   194   1    -0.05344011552233488      25.430727372059931      39.072490044464494
   195   1      2.0398199548225011      26.731888878279243      40.513959793583417
   196   1    0.031272139516998122       25.29892285952501       41.95494238650366
   197   1      1.9616237137299584      26.876827511901354      43.342831358160268
   198   1    0.039777031690904151      25.418052088544322      44.771692832658864
   199   1      1.9924994135159504      26.808040716516373       46.16970536006729
   200   1     0.15846347401096331      25.343083000819043       47.70039492690983
   201   1      1.8815497745376388      26.846262058099292      49.098648455346641
   202   1   -0.065112924050857154      25.322881553676595      50.594201605389081
   203   1      1.9396431845780526      26.850261047162451      51.961490351227688
   204   1   0.0091170639874211291      25.493420895251624      53.437306596020818
   205   1      1.9123530540877269      26.890739961338305      54.889484220108443
   206   1    0.059279878710156955      25.430152023376653       56.34405589714985
   207   1      1.9469597648573365      26.823664386919205      57.775992897468335
   208   1   -0.082498706027091639      25.458740285261417      59.230693404598021
   209   1      2.0387284652051414      26.869182804140024      60.700229208900836
   210   1    0.054354773090255382      25.446427770939898      62.045133198037981
   211   1    0.028125529956402596       28.19955830692642      33.331623102808138
   212   1       1.901911667631488      29.558931111361286      34.820925879171028
   213   1   0.0011237059319330906      28.321276245803173      36.245890754016479
   214   1      1.9816464038494099      29.582593447514416      37.645612421429604
   215   1   -0.036135322388964115      28.237548611651281      39.089059614294428
   216   1      1.9683936945588489      29.607826559743611      40.540071556901722
   217   1    -0.10931265415104802      28.222320828365749      41.921643625827613
   218   1      1.9581805552737708      29.665425044304421       43.32457203353615
   219   1     0.05600298461632848      28.208694754295664      44.883556524758227
   220   1       2.019225146319009      29.687314892255458      46.132528855229971
   221   1     0.01925566022609258      28.145973824509902      47.764384125184115
   222   1      1.8852294036793433      29.677051538918569      49.134964295086434
   223   1    0.082196253310535414      28.244031155214511      50.506245095806776
   224   1      1.9040365555061733      29.715637795865522      51.936125264133466
   225   1    0.052678952216575717      28.295287491833314      53.335501461031832
   226   1       1.961512748548603      29.657236775041422      54.810802195166758
   227   1    0.027016300115217124      28.203985768512744      56.313872869397194
   228   1      2.0647650346814208      29.703459865112929      57.719038328886143
   229   1   0.0018212222631917012      28.219179799384356       59.10344043975892
   230   1      1.9180018193701553      29.613773198029403      60.525537315340337
   231   1   0.0090443445190488674      28.204722511353225      61.926381520863323
   232   1      3.9791607014764492    0.033475142964296628      33.381456519911225
   233   1      5.9075879547537218      1.4069234260749719      34.849784798161245
   234   1      3.8917794199752516    0.021757587396896205      36.243586879731183
   235   1      5.8525008345886516      1.3500419864149513      37.709283045585444
   236   1      4.0448073869158572     0.01033996488585215      39.074452165971536
   237   1      5.8822037199025621      1.3701574094365025      40.572780371896584
   238   1      3.9011799911356175    0.012044916873268887      41.964866732198516
   239   1      5.9868655551592145      1.3787727284412534      43.364999963109028
   240   1      3.9320230531614113   -0.027342021659727402      44.867268264298467
   241   1      5.9592079657525252       1.335966356134433      46.247754697846183
   242   1      3.9556721691351004  -0.0013747006474640975      47.747474663831092
   243   1      5.9618835040843718      1.3219498513988728      49.242163102425721
   244   1      3.9468393004139921   -0.040020214399822701      50.531804487823301
   245   1      5.9443895336304848      1.4138838155097335      51.899121336705598
   246   1      3.9762934554361338    0.028091004804312088       53.38720599153406
   247   1      5.9556841787425574      1.3911439115149884      54.891909216441618
   248   1      3.9354285888047729   -0.063269454055327981      56.286135874696711
   249   1      5.8528183547463177       1.399866628221452      57.693306359132698
   250   1      3.9261046641755604    0.051166468018741654      59.155912005149368
   251   1      5.8939547428048034      1.4097193745359575      60.661655706433194
   252   1      3.9089676363041002    0.045448648409430373      61.995886484316763
   253   1      4.0127890275642786      2.7513655397135652      33.375865640820727
   254   1      5.8899268760441723      4.2863248329738184      34.788556405107286
   255   1       3.988369283135496      2.8155353290270675      36.258830455124702
   256   1      5.8635589153614802      4.2847441549852316      37.738508632650685
   257   1      4.0243113268918487       2.850003839360447      39.116594111556132
   258   1      5.9361376792883043      4.2982621563254986       40.55128542680022
   259   1      3.9100288179962903      2.8278425211836202      41.975563548837471
   260   1      5.8820121628503319      4.2218438040009403      43.350370534279456
   261   1       3.821069241774496      2.7168901240958081      44.850115151328303
   262   1      5.9020406298254962      4.2231316462326918      46.207694877717756
   263   1      3.8831396445486228      2.7689644240582676      47.672367176719753
   264   1      5.9265698446994453      4.1803249287952937      49.098583119624095
   265   1      3.9768065843394016      2.8133162323023013      50.602623059707156
   266   1      5.8913820610326413      4.1789591789921916      51.863686364756624
   267   1      3.9440592487109658      2.8367296064956844      53.380846206723795
   268   1      5.8995670510508411      4.2069360003541467      54.786984265942877
   269   1      3.9460497357987148      2.9236964580867948      56.374918535524827
   270   1      5.8507166974988349      4.1530207212332586      57.734456645763245
   271   1      3.9675500624713482      2.7970681379790232      59.146739465067071
   272   1      5.8101119313304563       4.275527636341657      60.571606697985345
   273   1      3.9480759397367056      2.7833865640113524      62.034069375816316
   274   1      3.9799811882317258       5.601861541423931       33.23742755867486
   275   1      5.8446566343453492      7.1070679180490313      34.743114237379004
   276   1      3.9274652798556899      5.6773066128620835      36.246932524835159
   277   1      5.9912991962145519      7.0825127285575293      37.613961537685817
   278   1      3.8630034018724055      5.6357020070054213      39.167025281829616
   279   1      5.8742132668555911      7.0147907951059336      40.530557933561774
   280   1      3.8965691475576874      5.6804329988344202      41.996208271025218
   281   1      5.9354346984496358      6.9732396982746812      43.450250343938208
   282   1      3.8931723961571514      5.6672692774189084      44.891669035692345
   283   1       5.935668398685868      6.9943038616895725       46.29397260543071
   284   1      4.0491626307006765      5.6374547850055219      47.640746207042618
   285   1      5.8593447624668098      6.9702167713463652      49.137405029971859
   286   1      3.9478022365656407      5.6879775968887607      50.558786206221278
   287   1      5.9452361997227134      7.0649573195436224      52.037331793626777
   288   1      3.9222672287584728      5.6838483251290945      53.474879141594919
   289   1      6.0280699071474251       7.003847769743178      54.866313595896514
   290   1      3.8732043543022137       5.605118920139498      56.320724207022437
   291   1      5.8856772183217512       7.085369514600445      57.652023470169866
   292   1      3.9660844232185819      5.6032646745425252      59.216268139933881
   293   1      5.9718658906054092      7.0579125089523744      60.629643118145864
   294   1      3.8501590641435293      5.5191136570218724      61.976509450138998
   295   1      3.9874645582747088      8.5352449756900999        33.3806503221508
   296   1      5.9685675695727767       9.815201855051118      34.819244020128401
   297   1      3.8877228345481778      8.4579649250748954      36.249121502163611
   298   1      5.8866952916086497      9.8697557789285373      37.644332896013566
   299   1      3.8717474585760314      8.5037787680044747      39.093720625944158
   300   1      5.9135436667585655      9.8785844218897108      40.450578852291194
   301   1      3.9748504878544879      8.5038507310440892      42.027202094091869
   302   1      5.8110338503636791      9.8202482017370194      43.445625621110104
   303   1      3.9904082092781437      8.4616548971626919       44.83798552565667
   304   1      5.8892695577913559       9.862774318988432      46.281098282913831
   305   1      4.0295343451315366      8.4124707370831509      47.684834098547796
   306   1      5.8713751085061539      9.8049574674375659      49.151791274361535
   307   1      3.8410891176928401      8.4664002684634685      50.494749374333374
   308   1      5.8376252261161898      9.9664004189663924      51.938617404950207
   309   1      3.8929168033238146      8.4743317026747498      53.442871777465108
   310   1      5.9980866747771246      9.8349340063853816      54.891184339764564
   311   1      3.8859803153569072      8.5486144484554778      56.405234001088537
   312   1       5.904106890925668      9.8521039038420106      57.694387699440583
   313   1      3.9109904661340811      8.4633424192333511      59.047458932567253
   314   1      5.8949483662342743      9.8829131224502511      60.628160403601129
   315   1      3.9046701691913994      8.5025664339947387      61.998605840485176
   316   1      3.9694843367075614      11.424518145112131      33.354650013072153
   317   1      5.8927930274820728      12.707521199166875      34.880778489564797
   318   1      3.8811091593897769      11.362468337800159       36.25721650989945
   319   1      6.0039655466380015      12.677812752790803      37.664223009129792
   320   1      3.9697355833923589      11.231660141863077      39.205974708603677
   321   1      5.8941609246441633      12.816126619178007      40.488723504359299
   322   1      3.9957080581371889      11.388947237763274      41.993856941168538
   323   1      5.9332203625171838      12.696101427912065      43.378646848183358
   324   1       3.885602745292394      11.250316342609947      44.882733490694925
   325   1      5.9118618803289591       12.69667000154293       46.21198493388588
   326   1      3.9837099715960651      11.337034063768209      47.737800869765778
   327   1      5.9467990439265463      12.692855506825483      49.154477034605073
   328   1      3.9368884854161821      11.292511824956826      50.531561712041935
   329   1      5.9547429467617237      12.696599432687542      52.042805741769747
   330   1      3.9768246071177518      11.197237806966346       53.45084000319838
   331   1       5.881680315942317      12.625616595877574      54.858150804337342
   332   1      3.9528852051611967      11.354855933469111      56.252202909050283
   333   1       5.890561668886769       12.78542791497568      57.679269299259097
   334   1      3.9672619768549335      11.261833467306516      59.095629351710564
   335   1      5.9750890230733287      12.709127865864819      60.661081674174888
   336   1      3.8947750273722135      11.168299777205421      62.075117754579196
   337   1      3.9179750527944863      14.136663082583436      33.437507402540078
   338   1      6.0022761780452161      15.579622223612599      34.774422842587406
   339   1       3.907059728926122      14.114913069545459      36.308949054568807
   340   1      5.8500645957746009      15.595465452481561      37.704486188959464
   341   1      3.9830563608987206      14.162629308291455      39.150675755633742
   342   1      5.9114138228776882       15.53918667310772      40.584971183380688
   343   1      3.9271550104650541      14.208242332478159      42.010076982755422
   344   1      5.8567816478168844      15.631458278367282       43.35810050395515
   345   1      3.9253855296117699      14.043056733567472      44.928798940454264
   346   1      5.8720026984283891       15.57041003326084      46.326932100993957
   347   1       3.903384871446685      14.074735430769449      47.670413921959451
   348   1       5.872324406249918      15.571195181175217       49.09481579541535
   349   1      3.8453920523858378       14.06870076289532      50.614462801094639
   350   1      5.8659739919127816      15.448296761246404      52.090633341934655
   351   1      3.9263015797088912      14.063406590774612      53.387074797776258
   352   1      5.9559105471538292      15.597111544461089      54.860545672687593
   353   1      3.8877015053483768      14.165423183024814      56.371238760158867
   354   1      5.8167493186491264      15.677687243893054      57.689346360016103
   355   1        3.92426438771894      14.062899472959987      59.205952718872751
   356   1      5.9115582632265671      15.628179428033405      60.601728761712835
   357   1      3.9362270692288637      14.203889453743425      62.001875241405898
   358   1      3.9158537753291967      16.891513032474123      33.410420998658601
   359   1      5.9700937453002512      18.370488981224614      34.802601133599829