LAMMPS (10 Dec 2025)
OMP_NUM_THREADS environment is not set. Defaulting to 1 thread.
  using 1 OpenMP thread(s) per MPI task
units metal
boundary p p s
atom_style atomic
timestep 0.002
read_data data.interface
Reading data file ...
  orthogonal box = (0 0 0) to (31.515933 31.066736 64.017825)
  1 by 1 by 4 MPI processor grid
  reading atoms ...
  4296 atoms
  read_data CPU = 0.015 seconds

pair_style eam/alloy
pair_coeff * * /mnt/c/Users/iwash/Documents/Repositories/Lammps/potentials/AlCu.eam.alloy Al Cu
Reading eam/alloy potential file /mnt/c/Users/iwash/Documents/Repositories/Lammps/potentials/AlCu.eam.alloy with DATE: 2008-10-01

neighbor 2.0 bin
neigh_modify delay 10 check yes

thermo 100
thermo_style custom step temp pe press pxx pyy lx ly lz

print '=== Phase 0: Shake (High-T limit) ==='
=== Phase 0: Shake (High-T limit) ===
velocity all create 1000.0 55904 dist gaussian
fix shake all nve/limit 0.1
run 1000
Neighbor list info ...
  update: every = 1 steps, delay = 10 steps, check = yes
  max neighbors/atom: 2000, page size: 100000
  master list distance cutoff = 8.6825
  ghost atom cutoff = 8.6825
  binsize = 4.34125, bins = 8 8 14
  1 neighbor lists, perpetual/occasional/extra = 1 0 0
  (1) pair eam/alloy, perpetual
      attributes: half, newton on
      pair build: half/bin/atomonly/newton
      stencil: half/bin/3d
      bin: standard
Per MPI rank memory allocation (min/avg/max) = 3.508 | 3.731 | 3.955 Mbytes
   Step          Temp          PotEng         Press           Pxx            Pyy             Lx             Ly             Lz      
         0   1000          -14495.566      3867.5748     -667.94773      8638.9156      31.515933      31.066736      60.322582    
       100   616.64362     -14283.243      14807.01       9824.9866      24213.516      31.515933      31.066736      61.80721     
       200   596.97549     -14272.237      9005.4112      3630.837       19739.18       31.515933      31.066736      62.588629    
       300   599.63034     -14273.49       4924.2075     -1928.2595      15683.316      31.515933      31.066736      63.035372    
       400   603.67753     -14275.626      8378.8565      537.06924      16965.393      31.515933      31.066736      63.212631    
       500   604.78909     -14276.1       -153.54182     -6787.8318      7716.8798      31.515933      31.066736      63.452359    
       600   588.83846     -14267.086     -13227.152     -18461.6       -4081.3809      31.515933      31.066736      64.224798    
       700   565.69294     -14254.243     -15870.23      -20722.645     -6866.8035      31.515933      31.066736      64.894519    
       800   577.89995     -14261.011     -11820.544     -17177.589     -3603.5588      31.515933      31.066736      64.830566    
       900   595.71222     -14270.965     -2952.99       -8137.7221      4304.0518      31.515933      31.066736      63.881583    
      1000   614.18715     -14281.369      2822.8112     -4054.6398      10621.319      31.515933      31.066736      63.594353  Pair    | 1.8015     | 2.0786     | 2.3287     |  17.0 | 83.68
Neigh   | 0.031901   | 0.052034   | 0.070535   |   6.8 |  2.09
Comm    | 0.069382   | 0.33015    | 0.60153    |  43.6 | 13.29
Output  | 0.00024124 | 0.00032369 | 0.00051343 |   0.0 |  0.01
Modify  | 0.0058992  | 0.0064689  | 0.0071081  |   0.6 |  0.26
Other   |            | 0.01626    |            |       |  0.65

Nlocal:           1074 ave        1296 max         829 min
Histogram: 1 1 0 0 0 0 0 0 0 2
Nghost:         3615.5 ave        4473 max        2464 min
Histogram: 1 0 0 0 0 1 0 1 0 1
Neighs:          96899 ave      140656 max       57287 min
Histogram: 2 0 0 0 0 0 0 0 1 1

Total # of neighbors = 387596
Ave neighs/atom = 90.222533
Neighbor list builds = 30
Dangerous builds = 0
=== Phase 1: 0K Relaxation ===
Switching to 'neigh_modify every 1 delay 0 check yes' setting during minimization
Setting up cg style minimization ...
  Unit style    : metal
  Current step  : 1000
WARNING: Energy due to 3 extra global DOFs will be included in minimizer energies
 (src/min.cpp:222)
Per MPI rank memory allocation (min/avg/max) = 4.633 | 4.856unfix shake
velocity all set 0 0 0

# x,y方向の箱寸法 + 原子位置を同時最適化（z方向はshrink-wrap）
print '=== Phase 1: 0K Relaxation ==='
=== Phase 1: 0K Relaxation ===
fix relax all box/relax x 0.0 y 0.0 vmax 0.001
minimize 1.0e-8 1.0e-10 10000 100000
Switching to 'neigh_modify every 1 delay 0 check yes' setting during minimization
WARNING: Energy due to 3 extra global DOFs will be included in minimizer energies
 (src/min.cpp:222)
Per MPI rank memory allocation (min/avg/max) = 4.633 | 4.856 | 5.08 Mbytes
   Step          Temp          PotEng         Press           Pxx            Pyy             Lx             Ly             Lz      
      1000   0             -14281.369     -3024.7361     -9612.0104      5000.7736      31.515933      31.066736      63.631028    
      1100   0             -14365.461     -1848.6393     -915.74073     -1101.1266      31.050819      31.214955      63.631028    
      1200 Loop time of 1.81168 on 4 procs for 498 steps with 4296 atoms

103.0% CPU use with 4 MPI tasks x 1 OpenMP threads

Minimization stats:
  Stopping criterion = linesearch alpha is zero
  Energy initial, next-to-last, final = 
     -14281.3691683663  -14523.0595706342  -14523.0595706342
  Force two-norm initial, final = 425.1398 39.143481
  Force max component initial, final = 373.54956 30.340647
  Final line search alpha, max atom move = 7.8581719e-12 2.3842202e-10
  Iterations, force evaluations = 498 585

MPI task timing breakdown:
Section |  min time  |  avg time  |  max time  |%varavg| %total
---------------------------------------------------------------
Pair    | 1.7343     | 1.7348     | 1.7353     |   0.0 | 95.76
Neigh   | 0          | 0          | 0          |   0.0 |  0.00
Comm    | 0.022094   | 0.024319   | 0.026254   |   1.0 |  1.34
Output  | 8.4703e-05 | 0.00010453 | 0.00016328 |   0.0 |  0.01
Modify  | 0          | 0          | 0          |   0.0 |  0.00
Other   |            | 0.05241    |            |       |  2.89

Nlocal:           1074 ave        1296 max         830 min
Histogram: 1 1 0 0 0 0 0 0 0 2
Nghost:           3608 ave        4474 max        2447 min
Histogram: 1 0 0 0 0 1 0 1 0 1
Neighs:        96932.5 ave      140597 max       56953 min
Histogram: 2 0 0 0 0 0 0 0 1 1

Total # of neighbors = 387730
Ave neighs/atom = 90.253724
Neighbor list builds = 0
Dangerous builds = 0
=== Phase 2: Annealing at 600.0K for 10.0ps ===
Setting up Verlet run ...
  Unit style    : metal
  Current step  : 0
  Time step     : 0.002
Per MPI rank memory allocation (min/avg/max) = 3.508 | 3.731 | 3.955 Mbytes
   Step          Temp          PotEng         Press           Pxx            Pyy             Lx             Ly             Lz      
         0   600           -14523.06       4737.1393      6791.9314      6121.0834      30.749681      30.974557      63.509129    
       100   435.29944     -14373.5unfix relax

# 界面近傍の原子配置を緩和（ミスフィット軽減）
print '=== Phase 2: Annealing at 600.0K for 10.0ps ==='
=== Phase 2: Annealing at 600.0K for 10.0ps ===
reset_timestep 0
velocity all create 600.0 55904 dist gaussian
fix ann all npt temp 600.0 600.0 0.1 x 0.0 0.0 1.0 y 0.0 0.0 1.0
run 5000
Per MPI rank memory allocation (min/avg/max) = 3.508 | 3.731 | 3.955 Mbytes
   Step          Temp          PotEng         Press           Pxx            Pyy             Lx             Ly             Lz      
         0   600           -14523.06       4737.1393      6791.9314      6121.0834      30.749681      30.974557      63.509129    
       100   435.29944     -14373.509     -6933.3052     -6018.0692     -6284.2196      31.090242      31.326438      63.313719    
       200   518.98536     -14331.831     -72.500207      1438.6139      699.94185      31.007574      31.279167      64.176241    
       300   593.36684     -14291.273      548.79625      1161.5278      1831.013       31.088541      31.318173      64.090957    
       400   616.43195     -14266.966     -1184.7291     -46.191734     -2239.7093      31.216098      31.470861      63.449713    
       500   598.86197     -14275.277      543.87305     -336.30256      1063.1232      31.317217      31.44869       63.390774    
       600   595.02658     -14290.513     -516.56026     -138.84411     -827.57183      31.293808      31.507736      63.260323    
       700   595.90341     -14271.443      1223.9904      1251.5         342.04644      31.331265      31.567592      63.259608    
       800   617.98767     -14267.807     -835.58228     -1777.5989     -1871.8222      31.466175      31.60709       62.980004    
       900   592.04582     -14276.034      2591.5013      1767.4182      1851.0379      31.402314      31.505703      63.338722    
      1000   593.28851     -14282.529     -15.13758      -680.70714     -771.56003      31.386678      31.545434      62.959436    
      1100   603.1243      -14277.603      97.241585      250.59736     -1044.7033      31.347006      31.530194      62.942272    
      1200   608.32754     -14282.933      957.52449      323.74612      1323.0294      31.379241      31.461244      62.605013    
      1300   600.88896     -14286.32      -547.50832     -809.79296     -1363.5246      31.400704      31.547598      63.637157    
      1400   602.889       -14278.636      561.6134       476.65645      103.47801      31.378587      31.582009      63.799207    
      1500   603.74618     -14270.055      203.5511       253.25837      11.15302       31.365302      31.539244      63.490426    
      1600   606.78755     -14280.741     -615.34373     -1110.6199      23.680135      31.321056      31.488465      63.46622     
      1700   598.43056     -14282.867      1196.7627      2063.6829      169.47885      31.195386      31.456853      64.00224     
      1800   597.4273      -14279.236     -1824.9182     -1870.2399     -979.19415      31.282076      31.433039      64.088842    
      1900   611.25778     -14276.826      138.65296      1012.496       486.98494      31.226747      31.393396      63.879318    
      2000   576.41117     -14271.737     -730.54868      443.20022     -675.17471      31.196422      31.411286      63.997297    
      2100   597.95914     -14278.738     -77.60265      -1208.1169      1837.6622      31.236      2700   602.06993     -14283.399      885.21502      546.6492       1285.4736      31.241878      31.42215       63.891127    
      2800   589.56538     -14290.837     -479.73551     -1023.4021     -727.91284      31.269792      31.493999      64.012337    
      2900   597.77875     -14279.693     -718.36438     -922.67619     -492.58098      31.306694      31.514357      63.624631    
      3000   610.62614     -14276.704     -357.68607     -358.75626     -856.43191      31.350914      31.566728      63.417097    
      3100   597.41317     -14274.442      902.83438      1218.2919     -534.23815      31.337656      31.562994      63.524768    
      3200   601.14932     -14287.445       2700   602.06993     -14283.399      885.21502      546.6492       1285.4736      31.241878      31.42215       63.891127    
      2800   589.56538     -14290.837     -479.73551     -1023.4021     -727.91284      31.269792      31.493999      64.012337    
      2900   597.77875     -14279.693     -718.36438     -922.67619     -492.58098      31.306694      31.514357      63.624631    
      3000   610.62614     -14276.704     -357.68607     -358.75626     -856.43191      31.350914      31.566728      63.417097    
      3100   597.41317     -14274.442      902.83438      1218.2919     -534.23815      31.337656      31.562994      63.524768    
      3200   601.14932     -14287.445     -186.78128     -1666.0699      285.82013      31.420086      31.473779      63.318537    
      3300   602.18199     -14276.439      1693.2885      812.68658      680.32544      31.35176       31.532828      63.459033    
      3400   600.20334     -14286.422      1039.4045      1610.4276     -256.74371      31.278614      31.529873      63.33329     
      3500   592.32607     -14282.643     -869.20468     -1648.047      -478.39848      31.391896      31.498543      63.476356    
      3600   603.77746     -14278.884      1118.7333      592.87965      603.33118      31.369596      31.529491      63.488321    
      3700   595.1034      -14277.947      564.80956      684.18418     -766.03245      31.301869      31.564717      63.052836    
      3800   591.57132     -14286.027     -376.56186     -30.191682     -188.68479      31.306994      31.493922      63.5453      
      3900   612.19732     -14282.753      723.18874     -632.39983      1903.5618      31.283782      31.417907      63.687244    
      4000   595.75972     -14282.08      -1398.59        167.60534     -3447.9197      31.196889      31.546586      63.246588    
      4100   604.11428     -14280.025      2636.3306      1503.7315      5289.4586      31.26718       31.32009       63.688893    
      4200   597.73141     -14272.657     -1405.2878     -427.26955     -1910.8037      31.206957      31.476654      63.716023    
      4300   592.48467     -14274.921     -505.36016      1509.1845     -620.2199       31.146781      31.445208      64.097409    
      4400   595.88618     -14278.727      399.87592      449.87352      2242.9598      31.249951      31.355625      63.658401    
      4500   590.98355     -14272.006     -1543.9971     -598.37838     -1419.0944      31.208367      31.478531      63.704838    
      4600   601.90561     -14269.338      834.25039      1773.4573      1262.8071      31.194697      31.421848      63.78775     
      4700   600.66645     -14283.333     -219.52706     -846.55621      1116.4342      31.235815      31.376361      63.649032    
      4800   603.03237     -14283.859     -1231.5797     -364.30403     -2068.2527      31.184642      31.470935    Neigh   | 0.14923    | 0.26816    | 0.37339    |  18.9 |  1.98
Comm    | 0.43774    | 2.3891     | 4.2517     | 116.1 | 17.65
Output  | 0.0011739  | 0.0015079  | 0.0024723  |   1.4 |  0.01
Modify  | 0.18259    | 0.25713    | 0.43463    |  20.3 |  1.90
Other   |            | 0.03894    |            |       |  0.29

Nlocal:           1074 ave        1296 max         837 min
Histogram: 1 1 0 0 0 0 0 0 0 2
Nghost:           3614 ave        4515 max        2389 min
Histogram: 1 0 0 0 0 1 0 1 0 1
Neighs:        96787.5 ave      138718 max       56042 min
Histogram: 2 0 0 0 0 0 0 0 1 1

Total # of neighbors = 387150
Ave neighs/atom = 90.118715
Neighbor list builds = 157
Dangerous builds = 0
=== Phase 2b: Cooling 600.0K -> 300.0K ===
Setting up Verlet run ...
  Unit style    : metal
  Current step  : 5000
  Time step     : 0.002
Per MPI rank memory allocation (min/avg/max) = 3.508 | 3.731 | 3.955 Mbytes
   Step          Temp          PotEng         Press           Pxx            Pyy             Lx             Ly             Lz      
      5000   604.6986      -14276.803     -1704.9353     -1078.5718     -2181.4581      31.311171      31.523267      63.498437    
      5100   592.9824      -14283.367      1623.3704      1411.0724      1423.4938      31.266894      31.470688      63.255671    
      5200   589.18026     -14289.202      603.84216      748.47255      547.93894    unfix ann

print '=== Phase 2b: Cooling 600.0K -> 300.0K ==='
=== Phase 2b: Cooling 600.0K -> 300.0K ===
fix cool all npt temp 600.0 300.0 0.1 x 0.0 0.0 1.0 y 0.0 0.0 1.0
run 5000
Per MPI rank memory allocation (min/avg/max) = 3.508 | 3.731 | 3.955 Mbytes
   Step          Temp          PotEng         Press           Pxx            Pyy             Lx             Ly             Lz      
      5000   604.6986      -14276.803     -1704.9353     -1078.5718     -2181.4581      31.311171      31.523267      63.498437    
      5100   592.9824      -14283.367      1623.3704      1411.0724      1423.4938      31.266894      31.470688      63.255671    
      5200   589.18026     -14289.202      603.84216      748.47255      547.93894      31.292044      31.515304      63.019248    
      5300   584.10024     -14300.676     -723.71217     -1586.6831     -744.67103      31.319515      31.513878      63.349066    
      5400   576.81941     -14298.397     -285.71632     -822.32253     -315.89455      31.329001      31.504548      62.936451    
      5500   568.00438     -14302.887      2054.2491      1667.3411      1728.7873      31.272632      31.467672      63.03515     
      5600   557.51309     -14308.904     -1605.4025     -2331.4844     -2517.2818      31.314897      31.527484      62.668014    
      5700   567.69156     -14312.05       2261.2252      2064.398       2262.7922      31.241443      31.46948       63.332668    
      5800   545.82355     -14313.17      -357.7714      -247.95559     -294.70558      31.310293      31.493869      63.345799    
      5900   548.23179     -14321.725     -943.44941     -797.37869     -1325.9014      31.287827      31.483306      62.865389    
      6000   551.56626     -14323.8        1670.234       1889.712       1838.0362      31.271588      31.430252      62.937424    
      6100   534.99767     -14327.417     -1978.9746     -3166.7105     -1627.8259      31.32803       31.453193      62.618052    
      6200   538.15794     -14333.519      1790.9101      2729.9161      1070.0559      31.172211      31.413523      63.050103    
      6300   522.72842     -14336.09      -755.03564     -1350.1469     -388.03481      31.272925      31.394121      63.198894    
      6400   516.63815     -14343.24      -478.60707     -694.47685      107.33672      31.235916      31.399456      62.832902    
      6500   509.37545     -14342.099      271.26179      1167.5951     -785.93852      31.165796      31.446702      62.812823    
      6600   504.79136     -14344.532     -1638.9228     -3466.1766     -70.362734      31.302609      31.369395      63.268729    
      6700   493.64713     -14350.704      2259.4153      2968.6864      2571.1713      31.172288      31.358138      62.895405    
      6800   496.23145     -14356.726     -353.4438       569.21999     -852.00356      31.160953      31.430096      62.948991    
      6900   473.32896     -14355.286      72.036069     -1220.3093      1438.6844      31.266372      31.330487      63.178874    
      7000   487.67584     -14364.808      1612.2155      3306.2449      451.52545      31.102246      31.380617      63.0584      
      7100   477.07945     -14370.686     -1176.5768     -874.66724     -1720.5984      31.172778      31.400033      63.139017    
      7200   460.69429     -14367.432      107.32322        7800   434.48661     -14398.266     -409.71245     -1247.2603     -51.677577      31.198965      31.328689      62.603101    
      7900   424.7662      -14399.84      -206.56632      1530.3095     -1875.6019      31.10687       31.411839      62.842993    
      8000   425.7665      -14402.919      969.77634     -308.66977      2338.1058      31.210842      31.301966      63.004844    
      8100   414.05567     -14406.084     -351.5017      -195.13379     -720.97935      31.167079      31.346         62.693114    
      8200   409.02442     -14411.524     -585.70492      0.031927653   -1235.0104      31.159176      31.346828      62.871996    
      8300   408.60078     -14416.482      762.08364      218.88225      1362.8559      31 434.48661     -14398.266     -409.71245     -1247.2603     -51.677577      31.198965      31.328689      62.603101    
      7900   424.7662      -14399.84      -206.56632      1530.3095     -1875.6019      31.10687       31.411839      62.842993    
      8000   425.7665      -14402.919      969.77634     -308.66977      2338.1058      31.210842      31.301966      63.004844    
      8100   414.05567     -14406.084     -351.5017      -195.13379     -720.97935      31.167079      31.346         62.693114    
      8200   409.02442     -14411.524     -585.70492      0.031927653   -1235.0104      31.159176      31.346828      62.871996    
      8300   408.60078     -14416.482      762.08364      218.88225      1362.8559      31.157494      31.275335      62.752407    
      8400   399.71738     -14419.013     -996.91351      118.95738     -1700.2934      31.125596      31.334701      62.588739    
      8500   397.53783     -14424.315      542.35335      233.00348      1120.5221      31.145546      31.279055      63.342061    
      8600   386.76453     -14425.531     -509.58229     -171.00413     -941.30254      31.132399      31.31924       63.170333    
      8700   382.59964     -14432.692     -22.111563      35.266585      393.08308      31.122777      31.288638      62.714468    
      8800   379.34009     -14434.867      52.683232      201.46597      336.13904      31.126305      31.29061       62.816388    
      8900   366.12518     -14436.136     -257.2799       173.67477     -143.28068      31.131935      31.284886      62.608008    
      9000   366.95332     -14444.447     -0.064203092   -85.913299      80.967189      31.137945      31.274145      62.409355    
      9100   355.83731     -14445.594     -124.8203       140.5983      -810.26573      31.129501      31.295641      62.973949    
      9200   356.47829     -14453.498      406.42712      80.158159      1191.6265      31.129618      31.24722       62.983186    
      9300   346.64017     -14453.414     -320.54314      65.024368     -1244.8285      31.11343       31.333392      62.640405    
      9400   342.27318     -14457.842      191.76675     -209.09022      222.72849      31.154397      31.285972      62.309692    
      9500   327.59937     -14457.748      1322.3279      560.86678      1479.4227      31.141478      31.267954      62.504203    
      9600   329.8937      -14465.574      7.5593473      442.62409     -1165.2643      31.10001       31.328885      62.668558    
      9700   318.57804     -14466.517      313.59333     -121.43266      643.42248      31.135526      31.247478      62.589749    
      9800   318.65867     -14473.554      429.48476      91.240199      592.40206      31.122766      31.238332      62.531301    
      9900   312.92892     -14477.027     -1081.7        -1008.6467     -1339.4053      31.114249      31.277883      62.735312    
 Modify  | 0.19885    | 0.32467    | 0.6516     |  33.2 |  2.31
Other   |            | 0.04567    |            |       |  0.32

Nlocal:           1074 ave        1296 max         850 min
Histogram: 2 0 0 0 0 0 0 0 0 2
Nghost:           3669 ave        4540 max        2506 min
Histogram: 1 0 0 0 1 0 0 1 0 1
Neighs:          99167 ave      141619 max       57429 min
Histogram: 2 0 0 0 0 0 0 0 1 1

Total # of neighbors = 396668
Ave neighs/atom = 92.334264
Neighbor list builds = 123
Dangerous builds = 0
=== Phase 3: Define Grips ===
432 atoms in group bottom
263 atoms in group top
3601 atoms in group mobile
Bottom grip: 432 atoms
Top grip:    263 atoms
Mobile:      3601 atoms
=== Phase 4: Equilibration with Grips ===
Setting up Verlet run ...
  Unit style    : metal
  Current step  : 0
  Time step     : 0.002
Per MPI rank memory allocation (min/avg/max) = 3.508 | 3.731 | 3.955 Mbytes
   Step          Temp          PotEng         Press           Pxx            Pyy             Lx             Ly             Lz      
         0   254.50408     -14479.874     -115.50861      339.4303       182.40359      31.086878      31.231583      62.692991    
       100   276.54336     -14469.309     -279.6861       39.291091     -702.73946    unfix cool

# 焼きなまし後の座標を基準にグリップ領域を定義
print '=== Phase 3: Define Grips ==='
=== Phase 3: Define Grips ===
variable zmin equal bound(all,zmin)
variable zmax equal bound(all,zmax)
variable grip_thick equal 5.0
variable zlo_grip equal ${zmin}+${grip_thick}
variable zlo_grip equal 1.68680540715506+${grip_thick}
variable zlo_grip equal 1.68680540715506+5
variable zhi_grip equal ${zmax}-${grip_thick}
variable zhi_grip equal 64.3669930822713-${grip_thick}
variable zhi_grip equal 64.3669930822713-5

region rgn_bot block INF INF INF INF INF ${zlo_grip}
region rgn_bot block INF INF INF INF INF 6.68680540715506
region rgn_top block INF INF INF INF ${zhi_grip} INF
region rgn_top block INF INF INF INF 59.3669930822713 INF
group bottom region rgn_bot
432 atoms in group bottom
group top region rgn_top
263 atoms in group top
group mobile subtract all bottom top
3601 atoms in group mobile

print 'Bottom grip: $(count(bottom)) atoms'
Bottom grip: 432 atoms
print 'Top grip:    $(count(top)) atoms'
Top grip:    263 atoms
print 'Mobile:      $(count(mobile)) atoms'
Mobile:      3601 atoms

print '=== Phase 4: Equilibration with Grips ==='
=== Phase 4: Equilibration with Grips ===
reset_timestep 0
velocity bottom set 0.0 0.0 0.0
velocity top set 0.0 0.0 0.0
# グリップ: nve（時間積分）+ setforce 0（力ゼロ）→ 等速運動
fix nve_bot bottom nve
fix nve_top top nve
fix freeze_bot bottom setforce 0.0 0.0 0.0
fix freeze_top top setforce 0.0 0.0 0.0
fix eq mobile npt temp 300.0 300.0 0.1 x 0.0 0.0 1.0 y 0.0 0.0 1.0
run 5000
Per MPI rank memory allocation (min/avg/max) = 3.508 | 3.731 | 3.955 Mbytes
   Step          Temp          PotEng         Press           Pxx            Pyy             Lx             Ly             Lz      
         0   254.50408     -14479.874     -115.50861      339.4303       182.40359      31.086878      31.231583      62.692991    
       100   276.54336     -14469.309     -279.6861       39.291091     -702.73946      31.097362      3      1700   296.60466     -14450.943     -380.85823     -419.10189      233.10933      31.15947       31.268973      62.692991    
      1800   296.69363     -14453.2       -685.17089     -569.3619      -397.19948      31.162186      31.27172       62.692991    
      1900   303.44306     -14449.178     -538.36884      755.79087     -1199.9939      31.140342      31.294007      62.692991    
      2000   303.35181     -14453.568     -99.739457     -738.19435      843.57581      31.193749      31.221154      62.692991    
      2100   299.86841     -14453.588     -99.672474      487.50612     -200.89739      31.128413      31.284028      62.692991    
      2200   298.51253     -14451.733      479.50131      382.5449       895.24967      31.146344      31.248665      62.692991    
      2300   304.42165     -14453.566      287.48087      829.48883      407.20829      31.137695      31.267446      62.692991    
      2400   304.85318     -14454.799     -605.05946     -882.59522     -245.93054      31.158668      31.27008       62.692991    
      2500   295.19815     -14452.651     -664.69695     -855.58273     -379.85815      31.146366      31.284323      62.692991    
      2600   297.69428     -14448.89      -1288.9045     -814.58729     -1709.7158      31.160851      31.307853      62.692991    
      2700   300.28061     -14449.596     -890.27707     -1400.3241     -297.92865      31.184734      31.270017      62.692991    
      2800   296.92446     -14452.062      711.81652      1916.0019     -182.8088       31.088974      31.30453       62.692991    
      2900   297.34729     -14450.241      1160.3126      328.05808      2533.2235      31.174784      31.210476      62.692991    
      3000   311.40456     -14450.584      310.58561      1510.5492     -247.50073      31.106244      31.300062      62.692991    
      3100   300.73962     -14451.867     -1001.6252     -1048.9886     -447.61971      31.183389      31.260998      62.692991    
      3200   298.34711     -14454.795     -1527.9296     -1220.3556     -1915.964       3110189      233.10933      31.15947       31.268973      62.692991    
      1800   296.69363     -14453.2       -685.17089     -569.3619      -397.19948      31.162186      31.27172       62.692991    
      1900   303.44306     -14449.178     -538.36884      755.79087     -1199.9939      31.140342      31.294007      62.692991    
      2000   303.35181     -14453.568     -99.739457     -738.19435      843.57581      31.193749      31.221154      62.692991    
      2100   299.86841     -14453.588     -99.672474      487.50612     -200.89739      31.128413      31.284028      62.692991    
      2200   298.51253     -14451.733      479.50131      382.5449       895.24967      31.146344      31.248665      62.692991    
      2300   304.42165     -14453.566      287.48087      829.48883      407.20829      31.137695      31.267446      62.692991    
      2400   304.85318     -14454.799     -605.05946     -882.59522     -245.93054      31.158668      31.27008       62.692991    
      2500   295.19815     -14452.651     -664.69695     -855.58273     -379.85815      31.146366      31.284323      62.692991    
      2600   297.69428     -14448.89      -1288.9045     -814.58729     -1709.7158      31.160851      31.307853      62.692991    
      2700   300.28061     -14449.596     -890.27707     -1400.3241     -297.92865      31.184734      31.270017      62.692991    
      2800   296.92446     -14452.062      711.81652      1916.0019     -182.8088       31.088974      31.30453       62.692991    
      2900   297.34729     -14450.241      1160.3126      328.05808      2533.2235      31.174784      31.210476      62.692991    
      3000   311.40456     -14450.584      310.58561      1510.5492     -247.50073      31.106244      31.300062      62.692991    
      3100   300.73962     -14451.867     -1001.6252     -1048.9886     -447.61971      31.183389      31.260998      62.692991    
      3200   298.34711     -14454.795     -1527.9296     -1220.3556     -1915.964       31.146813      3      4800   299.62266     -14452.604     -2011.7155     -1397.0923     -2239.1751      31.172557      31.309387      62.692991    
      4900   298.7937      -14454.713     -2182.0171     -2399.4018     -1599.8097      31.18816       31.294519      62.692991    
      5000   291.0513      -14454.096     -328.92655      412.93222     -510.51409      31.127711      31.304125      62.692991    
Loop time of 13.455 on 4 procs for 5000 steps with 4296 atoms

Performance: 64.214 ns/day, 0.374 hours/ns, 371.609 timesteps/s, 1.596 Matom-step/s
101.7% CPU use with 4 MPI tasks x 1 OpenMP threads

MPI task timing breakdown:
Section |  min time  |  avg time  |  max time  |%varavg| %total
---------------------------------------------------------------
Pair    | 8.7345     | 10.654     | 12.485     |  54.5 | 79.18
Neigh   | 0.08445    | 0.1568     | 0.22376    |  14.7 |  1.17
Comm    | 0.47257    | 2.2703     | 4.05       | 114.8 | 16.87
Output  | 0.0011179  | 0.0014893  | 0.0025685  |   1.6 |  0.01
Modify  | 0.21421    | 0.32984    | 0.63763    |  31.0 |  2.45
Other   |            | 0.04267    |            |       |  0.32

Nlocal:           1074 ave        1296 max         849 min
Histogram: 2 0 0 0 0 0 0 0 0 2
Nghost:         3678.5 ave        4553 max        2498 min
Histogram: 1 0 0 0 1 0 0 0 1 1
Neighs:        98797.5 ave      141291 max       56476 min
Histogram: 1 1 0 0 0 0 0 0 1 1

Total # of neighbors = 395190
Ave neighs/atom = 91.990223
Neighbor list builds = 90
Dangerous builds = 0
=== Phase 5: Tensile Test ===
Initial grip distance L0 = 57.6627866314686 Ang
Pull velocity = 0.115325573262937 Ang/ps (erate=0.002/ps)
Setting up Verlet run ...
  Unit style    : metal
  Current step  : 0
  Time step     : 0.002
Per MPI rank memory allocation (min/avg/max) = 5.008 | 5.231 | 5.455 Mbytes
   Step          Temp         v_strain     v_stress_zz        Pxx            Pyy             Lx             Ly           v_Lmat    
         0   291.06011      1.3554617e-15  0.096648788    412.93222     -510.51409      31.127711      31.304125      57.662787    
       100   270.81065      0.0004         0.31417203    -1435.0579     -2650.2905      31.127711      31.304125      57.685852    
       200   254.21399      0.0008         0.53191148    -3190.8449     -4165.7597      31.127711      31.304125      57.708917    
       300   249.06432      0.0012         0.62674381    -4076.2381     -4477.5159      31.127711      31.304125      57.731982    
       400   251.94534      0.0016         0.57559518    -3598.5385     -4683.4582      31.127711      31.304125      57.755047    
       500   253.03253      0.002          0.67727705    -4531.7671     -5315.4599      31.127711      31.304125      57.778112    
       600   247.90564      0.0024         0.72126685    -4784.9641     -5507.5271      31.127711      31.304125      57.801177    
       700   256.64986      0.0028         0.80240799    -5266.9131     -6005.9434      31.127711      31.304125      57.824242    
       800   253.42768      0.0032         0.83607502    -5922.7201     -6388.9781      31.127711      31.304125      57.847308    
       900   246.23936      0.0036         0.85772403    -5593.6869     -6617.2495      31.127711      31.304125      57.870373    
      1000   255.97039      0.004          0.84551106    -6149.7446     -6134.0709      31.127711      31.304125      57.893438    
      1100   253.20566      0.0044         0.84410087    -6273.3787     -6665.446       31.127711      31.304125      unfix eq

print '=== Phase 5: Tensile Test ==='
=== Phase 5: Tensile Test ===
reset_timestep 0

# グリップ重心間距離で初期材料長を定義
variable zcm_bot equal xcm(bottom,z)
variable zcm_top equal xcm(top,z)
variable tmp_L equal v_zcm_top-v_zcm_bot
variable L0 equal ${tmp_L}
variable L0 equal 57.6627866314686
print 'Initial grip distance L0 = ${L0} Ang'
Initial grip distance L0 = 57.6627866314686 Ang

# 引っ張り速度 = erate × L0
variable vpull equal 0.002*v_L0
velocity top set 0.0 0.0 ${vpull}
velocity top set 0.0      1600   250.84768      0.0064         0.98393345    -7117.6146     -6924.4396      31.127711      31.304125      58.031828    
      1700   251.11814      0.0068         1.0595636     -7949.1136     -7592.1491      31.127711      31.304125      58.054894    
      1800   251.92901      0.0072         1.1475732     -8391.0966     -8405.4809      31.127711      31.304125      58.077959    
      1900   250.11173      0.0076         1.2233052     -8694.9389     -8967.5863      31.127711      31.304125      58.101024    
      2000   252.26636      0.008          1.2277735     -8738.7467     -8599.137       31.127711      31.304125      58.124089    
      2100   252.54608      0.0084         1.288212      -8795.8685     -9454.5326      31.127711      31.304125      58.147154    
      2200   250.02874      0.0088         1.3447557     -9011.5449     -9132.8137      31.127711      31.304125      58.170219    
      2300   252.8475       0.0092         1.2344989     -8523.1473     -8999.2902      31.127711      31.304125      58.193284    
      2400   252.99998      0.0096         1.3463087     -9758.2963     -9434.2392      31.127711      31.304125      58.216349    
      2500   253.71033      0.01           1.4188294     -9862.6109     -10055.906      31.127711      31.304125      58.239414    
      2600   248.72706      0.0104         1.3578781     -10247.46      -10160.995      31.127711      31.304125      58.26248     
      2700   252.6082       0.0108         1.3620267     -10224.881     -9783.1672      31.127711      31.304125      58.285545    
      2800   248.10835      0.0112         1.4820475     -10722.59      -10690.196      31.127711      31.304125      58.30861     
      2900   250.76273      0.0116         1.5598606     -10980.18      -10988.309      31.127711      31.304125      58.331675    
      3000   255.15334      0.012          1.5862043     -11593.278     -11652.99       31.127711      31.304125      58.35474     
      3100   249.65985      0.0124         1.5888495     -11899.086     -11850.161      31.127711      31.304125      58.377805    
      3200   254.62377      0.0128         1.688311      -12503.525     -12203.102      31.127711      31.304125      58.40087     
      3300   250.96395      0.0132         1.6822303     -12449.984     -11843.459      31.127711      31.304125      58.423935    
      3400   252.75807      0.0136         1.7354417     -12687.438     -12171.26       31.127711      31.304125      58.447001    
      3500   251.31508      0.014          1.8117815     -13028.115     -13159.176      31.127711      31.304125      58.470066    
      3600   254.40789      0.0144         1.8106076     -13471.105     -12433.744      31.127711      31.304125      58.493131    
      3700   254.23361      0.0148         1.8290985     -13296.055     -12579.819      31.127711      31.304125      58.516196    
      3800   250.66886      0.0152         1.8276958     -13628.713     -12589.378      31.127711      31.304125      58.539261    
      3900   247.84286      0.0156         1.91205       -13870.828     -13408.263      31.127711      31.304125      58.562326    
      4000   253.12825      0.016          1.88363       -13990.103     -13132.429      31.127711      31.304125      58.585391    
      4100   249.71441      0.0164         1.9214229     -13963.469     -13192.518      31.127711      31.304125      58.608456    
      4200   250.5702       0.0168         1.95901       -14960.969     -14031.991      31.127711      31.304125      58.6.98393345    -7117.6146     -6924.4396      31.127711      31.304125      58.031828    
      1700   251.11814      0.0068         1.0595636     -7949.1136     -7592.1491      31.127711      31.304125      58.054894    
      1800   251.92901      0.0072         1.1475732     -8391.0966     -8405.4809      31.127711      31.304125      58.077959    
      1900   250.11173      0.0076         1.2233052     -8694.9389     -8967.5863      31.127711      31.304125      58.101024    
      2000   252.26636      0.008          1.2277735        4700   250.60052      0.0188         2.1053295     -15898.45      -14906.884      31.127711      31.304125      58.746847    
      4800   253.55548      0.0192         2.1581966     -16152.853     -15489.62       31.127711      31.304125      58.769912    
      4900   249.0924       0.0196         2.188594      -16367.427     -15442.562      31.127711      31.304125      58.792977    
      5000   249.13568      0.02           2.2567799     -16202.065     -15393.702      31.127711      31.304125      58.816042    
      5100   254.66004      0.0204         2.1962868     -16181.562     -15020.299      31.127711      31.304125      58.839107    
      5200   247.27875      0.0208         2.267031      -16440.387     -15725.656      31.127711      31.304125      58.862173    
      5300   245.98934      0.0212         2.3685054     -17741.766     -16082.957      31.127711      31.304125      58.885238    
      5400   249.99599      0.0216         2.3824274     -17482.165     -16585.728      31.127711      31.304125      58.908303    
      5500   248.63172      0.022          2.3312933     -17740.43      -15618.951      31.127711      31.304125      58.931368    
      5600   255.52783      0.0224         2.4144915     -18458.613     -17036.45       31.127711      31.304125      58.954433    
      5700   247.65714      0.0228         2.3966319     -18836.007     -17118.553      31.127711      31.304125      58.977498    
      5800   253.29139      0.0232         2.4576508     -19065.887     -16576.407      31.127711      31.304125      59.000563    
      5900   257.52094      0.0236         2.4594274     -19463.802     -17711.331      31.127711      31.304125      59.023628    
      6000   252.30091      0.024          2.4657649     -20039.574     -17551.144      31.127711      31.304125      59.046694    
      6100   248.68762      0.0244         2.4606215     -19799.912     -16943.567      31.127711      31.304125      59.069759    
      6200   253.37466      0.0248         2.483416      -19907.571     -16971.995      31.127711      31.304125      59.092824    
      6300   244.04463      0.0252         2.4852413     -20040.601     -17450.809      31.127711      31.304125      59.115889    
      6400   248.54272      0.0256         2.5548063     -20153.25      -18241.691      31.127711      31.304125      59.138954    
      6500   250.71948      0.026          2.4973634     -20308.679     -17732.236      31.127711      31.304125      59.162019    
      6600   249.17027      0.0264         2.6445443     -20712.481     -18809.636      31.127711      31.304125      59.185084    
      6700   252.92708      0.0268         2.7159948     -21926.007     -18737.876      31.127711      31.304125      59.208149    
      6800   253.56961      0.0272         2.6984001     -21310.804     -18935.793      31.127711      31.304125      59.231214    
      6900   253.08672      0.0276         2.7413848     -22090.178     -19186.066      31.127711      31.304125      59.25428     
      7000   252.21579      0.028          2.8000663     -22502.808     -19679.682      31.127711      31.304125      59.277345    
      7100   250.7375       0.0284         2.7995889     -22070.498     -19800.776      31.127711      31.304125      59.30041     
      7200   250.42403      0.0288         2.8046937     -21928.87      -19853.566      31.127711      31.304125      59.323475    
      7300   253.58258      0.0292         2.8139109     -22505.238     -19962.742      31.127711      31.304125      59.346543295     -15898.45      -14906.884      31.127711      31.304125      58.746847    
      4800   253.55548      0.0192         2.1581966     -16152.853     -15489.62       31.127711      31.304125      58.769912    
      4900   249.0924       0.0196         2.188594      -16367.427     -15442.562      31.127711      31.304125      58.792977    
      5000   249.13568      0.02           2.2567799     -16202.065     -15393.702      31.127711      31.304125      58.816042    
      5100   254.66004      0.0204         2.1962868        7800   250.61188      0.0312         2.925147      -23706.684     -20687.235      31.127711      31.304125      59.461866    
      7900   254.09058      0.0316         2.9712405     -23518.541     -20984.424      31.127711      31.304125      59.484931    
      8000   252.49871      0.032          2.9931708     -23443.582     -20937.243      31.127711      31.304125      59.507996    
      8100   252.50334      0.0324         3.0730082     -25073.557     -21718.443      31.127711      31.304125      59.531061    
      8200   253.15982      0.0328         3.1114009     -25180.678     -22629.31       31.127711      31.304125      59.554126    
      8300   260.7051       0.0332         3.1018677     -25168.422     -22483.188      31.127711      31.304125      59.577191    
      8400   256.63844      0.0336         3.0943086     -26220.877     -22236.501      31.127711      31.304125      59.600256    
      8500   254.3224       0.034          3.0556414     -26255.898     -22712.988      31.127711      31.304125      59.623321    
      8600   254.87215      0.0344         3.048836      -25972.734     -22964.32       31.127711      31.304125      59.646386    
      8700   259.67228      0.0348         3.0206838     -26018.083     -23009.498      31.127711      31.304125      59.669452    
      8800   250.95717      0.0352         3.0477062     -26300.186     -22586.05       31.127711      31.304125      59.692517    
      8900   248.36883      0.0356         3.0073545     -25675.796     -22312.265      31.127711      31.304125      59.715582    
      9000   256.58971      0.036          3.0185407     -26321.194     -22787.721      31.127711      31.304125      59.738647    
      9100   248.81635      0.0364         3.060861      -26569.846     -22828.904      31.127711      31.304125      59.761712    
      9200   255.8061       0.0368         3.1471125     -26764.808     -23556.572      31.127711      31.304125      59.784777    
      9300   249.99023      0.0372         3.2518727     -27669.951     -23954.692      31.127711      31.304125      59.807842    
      9400   246.42605      0.0376         3.261262      -27774.368     -24684.966      31.127711      31.304125      59.830907    
      9500   257.22888      0.038          3.3417159     -28072.426     -24802.568      31.127711      31.304125      59.853973    
      9600   243.91375      0.0384         3.3674445     -28928.239     -25555.291      31.127711      31.304125      59.877038    
      9700   253.97737      0.0388         3.3613275     -29035.471     -25552.141      31.127711      31.304125      59.900103    
      9800   255.00491      0.0392         3.3987762     -28781.525     -25123.219      31.127711      31.304125      59.923168    
      9900   251.90094      0.0396         3.4281521     -29013.509     -25222.852      31.127711      31.304125      59.946233    
     10000   253.82152      0.04           3.3887266     -28946.056     -25078.526      31.127711      31.304125      59.969298    
     10100   253.55684      0.0404         3.2954526     -28744.786     -24784.648      31.127711      31.304125      59.992363    
     10200   247.67452      0.0408         3.4727454     -29067.597     -25547.707      31.127711      31.304125      60.015428    
     10300   255.29043      0.0412         3.4264681     -29230.304     -25852.448      31.127711      31.304125      60.038493    
     10400   249.65633      0.0416         3.3992114     -28879.674     -25436.131      31.127711      31.304125      60.061559        -23706.684     -20687.235      31.127711      31.304125      59.461866    
      7900   254.09058      0.0316         2.9712405     -23518.541     -20984.424      31.127711      31.304125      59.484931    
      8000   252.49871      0.032          2.9931708     -23443.582     -20937.243      31.127711      31.304125      59.507996    
      8100   252.50334      0.0324         3.0730082     -25073.557     -21718.443      31.127711      31.304125      59.531061    
      8200   253.15982      0.0328         3.1114009       10900   251.75531      0.0436         3.6581918     -31201.571     -27607.806      31.127711      31.304125      60.176884    
     11000   248.26943      0.044          3.7614414     -31493.773     -27895.912      31.127711      31.304125      60.199949    
     11100   252.51606      0.0444         3.7071787     -31213.11      -27936.383      31.127711      31.304125      60.223014    
     11200   251.91031      0.0448         3.6793459     -30832.913     -27138.097      31.127711      31.304125      60.246079    
     11300   257.36646      0.0452         3.6882288     -30845.546     -27774.345      31.127711      31.304125      60.269145    
     11400   249.06129      0.0456         3.7206119     -31242.537     -27908.478      31.127711      31.304125      60.29221     
     11500   251.77736      0.046          3.675753      -31225.896     -27539.849      31.127711      31.304125      60.315275    
     11600   254.61824      0.0464         3.7504055     -31347.478     -27599.252      31.127711      31.304125      60.33834     
     11700   247.86838      0.0468         3.8304493     -32115.323     -28497.663      31.127711      31.304125      60.361405    
     11800   253.54251      0.0472         3.8027857     -32072.521     -28290.111      31.127711      31.304125      60.38447     
     11900   248.95511      0.0476         3.8709143     -32717.874     -29380.042      31.127711      31.304125      60.407535    
     12000   239.58205      0.048          3.9313347     -33154.286     -30093.468      31.127711      31.304125      60.4306      
     12100   252.9841       0.0484         3.9962543     -34014.856     -30103.286      31.127711      31.304125      60.453666    
     12200   251.43812      0.0488         3.945907      -32814.5       -28841.628      31.127711      31.304125      60.476731    
     12300   251.89646      0.0492         3.9905162     -33867.995     -30505.816      31.127711      31.304125      60.499796    
     12400   249.83573      0.0496         4.0157063     -33699.056     -30045.108      31.127711      31.304125      60.522861    
     12500   249.62875      0.05           3.9976207     -33433.897     -29967.941      31.127711      31.304125      60.545926    
     12600   250.12335      0.0504         3.9937515     -33608.704     -29930.431      31.127711      31.304125      60.568991    
     12700   250.49371      0.0508         4.059822      -33962.82      -30181.903      31.127711      31.304125      60.592056    
     12800   250.66866      0.0512         3.9314861     -33216.768     -29697.008      31.127711      31.304125      60.615121    
     12900   251.76456      0.0516         4.0566459     -33885.539     -30029.414      31.127711      31.304125      60.638186    
     13000   249.86588      0.052          4.0844266     -33696.614     -30382.186      31.127711      31.304125      60.661252    
     13100   257.74117      0.0524         4.0959869     -34099.874     -30369.346      31.127711      31.304125      60.684317    
     13200   247.5655       0.0528         4.1619823     -34633.494     -30517.384      31.127711      31.304125      60.707382    
     13300   251.03242      0.0532         4.1780452     -35082.797     -31612.202      31.127711      31.304125      60.730447    
     13400   253.87772      0.0536         4.2266047     -35113.232     -31505.489      31.127711      31.304125      60.753512    
     13500   246.66526      0.054          4.2121675     -35408.68      -31471.134      31.127711      31.304125      60.776577    
   -31201.571     -27607.806      31.127711      31.304125      60.176884    
     11000   248.26943      0.044          3.7614414     -31493.773     -27895.912      31.127711      31.304125      60.199949    
     11100   252.51606      0.0444         3.7071787     -31213.11      -27936.383      31.127711      31.304125      60.223014    
     11200   251.91031      0.0448         3.6793459     -30832.913     -27138.097      31.127711      31.304125      60.246079    
     11300   257.36646      0.0452         3.6882288       14000   252.09287      0.056          4.2657809     -35171.396     -31622.768      31.127711      31.304125      60.891903    
     14100   247.3979       0.0564         4.2950522     -35900.05      -32127.114      31.127711      31.304125      60.914968    
     14200   250.10335      0.0568         4.2818945     -36131.687     -32374.346      31.127711      31.304125      60.938033    
     14300   252.22742      0.0572         4.3330778     -36029.937     -32435.287      31.127711      31.304125      60.961098    
     14400   249.52105      0.0576         4.3391927     -36383.529     -32612.583      31.127711      31.304125      60.984163    
     14500   247.11546      0.058          4.403002      -36672.349     -32845.412      31.127711      31.304125      61.007228    
     14600   251.62214      0.0584         4.3959521     -36269.285     -32888.685      31.127711      31.304125      61.030293    
     14700   246.88229      0.0588         4.476243      -36617.579     -33221.454      31.127711      31.304125      61.053358    
     14800   248.67877      0.0592         4.4159948     -36639.607     -33595.945      31.127711      31.304125      61.076424    
     14900   255.62916      0.0596         4.4277101     -36904.114     -33768.119      31.127711      31.304125      61.099489    
     15000   254.60261      0.06           4.5645056     -37844.254     -34376.071      31.127711      31.304125      61.122554    
     15100   245.7084       0.0604         4.4110513     -37219.6       -34115.164      31.127711      31.304125      61.145619    
     15200   255.61805      0.0608         4.4629104     -37381.882     -33860.049      31.127711      31.304125      61.168684    
     15300   251.2115       0.0612         4.4784729     -37532.215     -33909.721      31.127711      31.304125      61.191749    
     15400   256.27571      0.0616         4.4733574     -37302.637     -33779.27       31.127711      31.304125      61.214814    
     15500   255.3686       0.062          4.4512371     -37140.318     -33245.917      31.127711      31.304125      61.237879    
     15600   246.52404      0.0624         4.4706685     -36643.66      -33339.165      31.127711      31.304125      61.260945    
     15700   251.77388      0.0628         4.3270409     -37022.491     -33004.725      31.127711      31.304125      61.28401     
     15800   247.86604      0.0632         4.4111288     -37080.124     -33561.406      31.127711      31.304125      61.307075    
     15900   249.51453      0.0636         4.3742048     -36408.36      -33193.546      31.127711      31.304125      61.33014     
     16000   249.95054      0.064          4.4037107     -38003.065     -33775.193      31.127711      31.304125      61.353205    
     16100   243.55833      0.0644         4.4809701     -37007.324     -34181.887      31.127711      31.304125      61.37627     
     16200   247.21514      0.0648         4.4896724     -37490.599     -34257.865      31.127711      31.304125      61.399335    
     16300   248.32287      0.0652         4.3436143     -37183.101     -33804.055      31.127711      31.304125      61.4224      
     16400   248.20752      0.0656         4.383304      -37092.693     -34147.132      31.127711      31.304125      61.445465    
     16500   249.1839       0.066          4.4335677     -36704.394     -34558.008      31.127711      31.304125      61.468531    
     16600   252.47544      0.0664         4.2457679     -35397.545     -32772.423      31.127711      31.304125      61.491596    
     1171.396     -31622.768      31.127711      31.304125      60.891903    
     14100   247.3979       0.0564         4.2950522     -35900.05      -32127.114      31.127711      31.304125      60.914968    
     14200   250.10335      0.0568         4.2818945     -36131.687     -32374.346      31.127711      31.304125      60.938033    
     14300   252.22742      0.0572         4.3330778     -36029.937     -32435.287      31.127711      31.304125      60.961098    
     14400   249.52105      0.0576         4.3391927       17100   259.02457      0.0684         3.4826226     -30436.65      -28087.997      31.127711      31.304125      61.606921    
     17200   250.20882      0.0688         3.2196432     -29018.87      -26265.079      31.127711      31.304125      61.629986    
     17300   252.38573      0.0692         3.0389075     -27704.962     -25145.34       31.127711      31.304125      61.653051    
     17400   252.83111      0.0696         2.8277419     -26261.961     -23953.337      31.127711      31.304125      61.676117    
     17500   256.35771      0.07           2.7541514     -25488.779     -23229.255      31.127711      31.304125      61.699182    
     17600   249.35985      0.0704         2.4095937     -22785.688     -20588.288      31.127711      31.304125      61.722247    
     17700   255.23844      0.0708         2.3065646     -22181.966     -20421.751      31.127711      31.304125      61.745312    
     17800   252.20771      0.0712         2.1943775     -21668.171     -19800.144      31.127711      31.304125      61.768377    
     17900   251.14016      0.0716         1.9853308     -19889.775     -18206.704      31.127711      31.304125      61.791442    
     18000   249.42752      0.072          1.8260512     -18234.844     -16947.413      31.127711      31.304125      61.814507    
     18100   250.51716      0.0724         1.8562881     -17956.838     -16158.589      31.127711      31.304125      61.837572    
     18200   243.6029       0.0728         1.7510163     -17202.933     -15714.985      31.127711      31.304125      61.860637    
     18300   252.26552      0.0732         1.7026159     -16740.396     -15450.698      31.127711      31.304125      61.883703    
     18400   250.5301       0.0736         1.7285968     -17106.4       -15714.481      31.127711      31.304125      61.906768    
     18500   254.22938      0.074          1.8509559     -16988.487     -16333.112      31.127711      31.304125      61.929833    
     18600   246.97606      0.0744         1.8398572     -16525.921     -15337.072      31.127711      31.304125      61.952898    
     18700   252.45003      0.0748         1.8465872     -16030.827     -15481.086      31.127711      31.304125      61.975963    
     18800   251.93484      0.0752         1.8310026     -15347.774     -14711.994      31.127711      31.304125      61.999028    
     18900   250.99473      0.0756         1.8644927     -14953.875     -14915.075      31.127711      31.304125      62.022093    
     19000   253.72248      0.076          1.8063103     -14737.744     -14158.825      31.127711      31.304125      62.045158    
     19100   248.51667      0.0764         1.8037243     -14552.514     -14642.911      31.127711      31.304125      62.068224    
     19200   254.68691      0.0768         1.6203904     -13346.441     -13486.934      31.127711      31.304125      62.091289    
     19300   254.45068      0.0772         1.6531537     -13366.622     -13132.662      31.127711      31.304125      62.114354    
     19400   253.67934      0.0776         1.592502      -13355.2       -13183.856      31.127711      31.304125      62.137419    
     19500   251.02684      0.078          1.5061401     -12299.316     -12858.756      31.127711      31.304125      62.160484    
     19600   255.29522      0.0784         1.6053112     -13093.653     -13156.567      31.127711      31.304125      62.183549    
     19700   252.52813      0.0788         1.5851884     -13019.052     -12574.028      31.127711      31.304125      62.206614    
     1980065      -28087.997      31.127711      31.304125      61.606921    
     17200   250.20882      0.0688         3.2196432     -29018.87      -26265.079      31.127711      31.304125      61.629986    
     17300   252.38573      0.0692         3.0389075     -27704.962     -25145.34       31.127711      31.304125      61.653051    
     17400   252.83111      0.0696         2.8277419     -26261.961     -23953.337      31.127711      31.304125      61.676117    
     17500   256.35771      0.07           2.7541514       20200   256.82067      0.0808         1.5876366     -12914.74      -12804.791      31.127711      31.304125      62.32194     
     20300   248.09868      0.0812         1.665885      -13515.412     -12956.003      31.127711      31.304125      62.345005    
     20400   252.80506      0.0816         1.7308906     -13883.746     -13519.463      31.127711      31.304125      62.36807     
     20500   254.67912      0.082          1.5789134     -12861.641     -12496.08       31.127711      31.304125      62.391135    
     20600   255.7579       0.0824         1.5174437     -12258.175     -12325.862      31.127711      31.304125      62.4142      
     20700   245.79896      0.0828         1.5576819     -12840.698     -13145.383      31.127711      31.304125      62.437265    
     20800   248.90826      0.0832         1.3603627     -11168.448     -11330.821      31.127711      31.304125      62.46033     
     20900   255.39648      0.0836         1.3940373     -11310.963     -11367.991      31.127711      31.304125      62.483396    
     21000   250.96328      0.084          1.3851257     -11884.633     -11502.648      31.127711      31.304125      62.506461    
     21100   261.29732      0.0844         1.4015149     -12251.504     -11398.712      31.127711      31.304125      62.529526    
     21200   249.18865      0.0848         1.5185021     -12415.101     -12605.894      31.127711      31.304125      62.552591    
     21300   250.24876      0.0852         1.4883763     -12532.571     -11878.594      31.127711      31.304125      62.575656    
     21400   255.21384      0.0856         1.4081254     -11543.182     -11655.92       31.127711      31.304125      62.598721    
     21500   247.75706      0.086          1.499023      -12385.121     -12025.706      31.127711      31.304125      62.621786    
     21600   250.80308      0.0864         1.4666812     -11431.074     -11731.452      31.127711      31.304125      62.644851    
     21700   248.1028       0.0868         1.4674593     -12098.983     -11877.184      31.127711      31.304125      62.667917    
     21800   246.73174      0.0872         1.4548333     -12156.882     -12359.665      31.127711      31.304125      62.690982    
     21900   251.02618      0.0876         1.3399327     -10662.089     -11607.402      31.127711      31.304125      62.714047    
     22000   252.52015      0.088          1.38867       -11676.171     -12084.27       31.127711      31.304125      62.737112    
     22100   248.92822      0.0884         1.3334544     -11481.676     -11635.863      31.127711      31.304125      62.760177    
     22200   252.87701      0.0888         1.3565862     -11290.008     -11156.092      31.127711      31.304125      62.783242    
     22300   254.10609      0.0892         1.2122071     -10531.804     -10612.599      31.127711      31.304125      62.806307    
     22400   252.54984      0.0896         1.143126      -9830.4197     -10379.762      31.127711      31.304125      62.829372    
     22500   251.36335      0.09           1.1383581     -9611.3022     -10302.026      31.127711      31.304125      62.852437    
     22600   252.30834      0.0904         1.224117      -10318.244     -10658.899      31.127711      31.304125      62.875503    
     22700   251.9952       0.0908         1.194861      -10213.924     -10495.087      31.127711      31.304125      62.898568    
     22800   245.42617      0.0912         1.2982819     -10366.215     -10596.168      31.127711      31.304125      62.921633    
     22900   2    -12804.791      31.127711      31.304125      62.32194     
     20300   248.09868      0.0812         1.665885      -13515.412     -12956.003      31.127711      31.304125      62.345005    
     20400   252.80506      0.0816         1.7308906     -13883.746     -13519.463      31.127711      31.304125      62.36807     
     20500   254.67912      0.082          1.5789134     -12861.641     -12496.08       31.127711      31.304125      62.391135    
     20600   255.7579       0.0824         1.5174437       23300   251.30395      0.0932         1.1661184     -9840.1949     -9960.6268      31.127711      31.304125      63.036958    
     23400   246.49394      0.0936         1.1878684     -9900.8302     -10615.86       31.127711      31.304125      63.060023    
     23500   254.16575      0.094          1.1370509     -9717.4351     -9780.1091      31.127711      31.304125      63.083089    
     23600   251.15959      0.0944         1.1594464     -9648.6948     -9873.8071      31.127711      31.304125      63.106154    
     23700   246.25445      0.0948         1.0987559     -9173.7548     -9567.1031      31.127711      31.304125      63.129219    
     23800   254.79911      0.0952         1.1725333     -10664.904     -9784.7483      31.127711      31.304125      63.152284    
     23900   253.44402      0.0956         1.1258821     -9493.2844     -10226.833      31.127711      31.304125      63.175349    
     24000   245.89865      0.096          1.0470022     -9771.0311     -9334.8017      31.127711      31.304125      63.198414    
     24100   248.00908      0.0964         1.0461479     -9105.3414     -9217.335       31.127711      31.304125      63.221479    
     24200   251.36863      0.0968         0.98513629    -8721.9593     -8987.3521      31.127711      31.304125      63.244544    
     24300   252.26271      0.0972         1.1105928     -9730.8349     -10138.684      31.127711      31.304125      63.267609    
     24400   249.60084      0.0976         1.2620981     -10772.593     -10359.635      31.127711      31.304125      63.290675    
     24500   252.10176      0.098          1.2782493     -10740.746     -10573.935      31.127711      31.304125      63.31374     
     24600   255.80891      0.0984         1.2209203     -10278.02      -9853.9286      31.127711      31.304125      63.336805    
     24700   250.86527      0.0988         1.3258936     -10790.053     -10764.841      31.127711      31.304125      63.35987     
     24800   253.12249      0.0992         1.1730733     -10986.509     -10410.228      31.127711      31.304125      63.382935    
     24900   252.59154      0.0996         1.2110609     -10093.312     -9956.1876      31.127711      31.304125      63.406       
     25000   247.04861      0.1            1.0450732     -9136.7037     -9465.1676      31.127711      31.304125      63.429065    
     25100   253.64189      0.1004         0.9889832     -8502.9627     -8619.9231      31.127711      31.304125      63.45213     
     25200   254.01937      0.1008         1.0313568     -8907.8402     -8835.7445      31.127711      31.304125      63.475196    
     25300   254.59762      0.1012         1.0566938     -9289.8205     -8866.7364      31.127711      31.304125      63.498261    
     25400   248.57908      0.1016         0.99293702    -8388.9325     -8463.7413      31.127711      31.304125      63.521326    
     25500   253.67594      0.102          1.0511555     -8676.325      -8681.9727      31.127711      31.304125      63.544391    
     25600   249.07466      0.1024         0.99577154    -8909.7358     -9146.7834      31.127711      31.304125      63.567456    
     25700   252.7448       0.1028         0.90131673    -8310.9393     -8286.606       31.127711      31.304125      63.590521    
     25800   252.1875       0.1032         0.97309042    -7979.2975     -8775.7632      31.127711      31.304125      63.613586    
     25900   248.62364      0.1036         0.96893836    -8495.5948     -8856.9025      31.127711      31.304125      63.636651    
     26000   249.9-9960.6268      31.127711      31.304125      63.036958    
     23400   246.49394      0.0936         1.1878684     -9900.8302     -10615.86       31.127711      31.304125      63.060023    
     23500   254.16575      0.094          1.1370509     -9717.4351     -9780.1091      31.127711      31.304125      63.083089    
     23600   251.15959      0.0944         1.1594464     -9648.6948     -9873.8071      31.127711      31.304125      63.106154    
     23700   246.25445      0.0948         1.0987559       26400   252.1597       0.1056         1.1123705     -9889.5378     -9839.4391      31.127711      31.304125      63.751977    
     26500   251.69158      0.106          1.0714643     -9438.1419     -9146.7442      31.127711      31.304125      63.775042    
     26600   251.68158      0.1064         1.0279343     -8856.3503     -9105.5334      31.127711      31.304125      63.798107    
     26700   251.97174      0.1068         1.0146567     -9083.8489     -8987.4452      31.127711      31.304125      63.821172    
     26800   254.21004      0.1072         1.0093539     -8402.6769     -8425.3478      31.127711      31.304125      63.844237    
     26900   249.69903      0.1076         1.0768569     -9137.8951     -8922.1291      31.127711      31.304125      63.867302    
     27000   247.96036      0.108          1.0566985     -9741.6101     -9673.3518      31.127711      31.304125      63.890368    
     27100   257.40514      0.1084         0.97905907    -8586.8849     -8594.6632      31.127711      31.304125      63.913433    
     27200   251.2502       0.1088         0.97095328    -8888.1617     -9344.3664      31.127711      31.304125      63.936498    
     27300   254.98333      0.1092         0.89546059    -7821.5486     -8307.0059      31.127711      31.304125      63.959563    
     27400   255.13857      0.1096         0.82276083    -7474.0039     -8408.8362      31.127711      31.304125      63.982628    
     27500   249.62698      0.11           0.84001832    -7690.792      -7940.2085      31.127711      31.304125      64.005693    
     27600   251.59245      0.1104         0.90022684    -8199.9674     -8892.4173      31.127711      31.304125      64.028758    
     27700   256.45259      0.1108         0.94918034    -8726.8865     -9265.1423      31.127711      31.304125      64.051823    
     27800   250.32956      0.1112         1.071105      -8807.9167     -9278.2308      31.127711      31.304125      64.074889    
     27900   253.89445      0.1116         0.97467579    -8710.8142     -8941.3782      31.127711      31.304125      64.097954    
     28000   249.48391      0.112          0.97578471    -8361.2168     -8690.0444      31.127711      31.304125      64.121019    
     28100   250.24034      0.1124         0.97907382    -8264.6793     -8940.3025      31.127711      31.304125      64.144084    
     28200   248.74354      0.1128         0.87680879    -7889.1712     -8447.1291      31.127711      31.304125      64.167149    
     28300   254.56031      0.1132         0.89709856    -8056.204      -8549.2956      31.127711      31.304125      64.190214    
     28400   252.1117       0.1136         0.92311011    -8211.5362     -8218.185       31.127711      31.304125      64.213279    
     28500   249.81071      0.114          0.89773309    -7888.1108     -8254.7092      31.127711      31.304125      64.236344    
     28600   250.85013      0.1144         0.87307472    -7999.8307     -8576.6289      31.127711      31.304125      64.259409    
     28700   249.41542      0.1148         0.84531113    -7606.7209     -8063.9823      31.127711      31.304125      64.282475    
     28800   256.9942       0.1152         0.77496875    -6949.1378     -7340.115       31.127711      31.304125      64.30554     
     28900   251.93713      0.1156         0.81064417    -7683.4554     -8121.1596      31.127711      31.304125      64.328605    
     29000   249.67692      0.116          0.70987082    -6602.6118     -7384.8712      31.127711      31.304125      64.35167     
     29100   253.7562 9.4391      31.127711      31.304125      63.751977    
     26500   251.69158      0.106          1.0714643     -9438.1419     -9146.7442      31.127711      31.304125      63.775042    
     26600   251.68158      0.1064         1.0279343     -8856.3503     -9105.5334      31.127711      31.304125      63.798107    
     26700   251.97174      0.1068         1.0146567     -9083.8489     -8987.4452      31.127711      31.304125      63.821172    
     26800   254.21004      0.1072         1.0093539       29500   250.79963      0.118          0.88300704    -7898.236      -7927.8612      31.127711      31.304125      64.466995    
     29600   252.01851      0.1184         0.81218919    -7506.0681     -8133.2057      31.127711      31.304125      64.490061    
     29700   252.16908      0.1188         0.82658838    -7910.4081     -8312.101       31.127711      31.304125      64.513126    
     29800   256.34124      0.1192         0.78454587    -7393.729      -7904.6051      31.127711      31.304125      64.536191    
     29900   250.38541      0.1196         0.7165888     -6751.9395     -7116.7956      31.127711      31.304125      64.559256    
     30000   254.57546      0.12           0.70027662    -6830.0474     -7071.0098      31.127711      31.304125      64.582321    
     30100   256.74002      0.1204         0.64313603    -6176.2844     -6690.7228      31.127711      31.304125      64.605386    
     30200   252.14813      0.1208         0.61894893    -5945.6497     -6795.7554      31.127711      31.304125      64.628451    
     30300   250.19641      0.1212         0.6306398     -6306.1687     -6497.3398      31.127711      31.304125      64.651516    
     30400   255.37117      0.1216         0.59028214    -5528.5077     -5936.9157      31.127711      31.304125      64.674581    
     30500   249.48399      0.122          0.55403481    -5911.6872     -5609.0045      31.127711      31.304125      64.697647    
     30600   250.55191      0.1224         0.60907369    -5922.0827     -7056.6712      31.127711      31.304125      64.720712    
     30700   252.09467      0.1228         0.64184325    -5865.7672     -6671.5456      31.127711      31.304125      64.743777    
     30800   253.05622      0.1232         0.63362311    -6450.3949     -7100.3156      31.127711      31.304125      64.766842    
     30900   251.26966      0.1236         0.67300691    -6879.3498     -7070.7203      31.127711      31.304125      64.789907    
     31000   253.51043      0.124          0.62180027    -6521.5435     -7153.7308      31.127711      31.304125      64.812972    
     31100   252.83196      0.1244         0.71671685    -7053.5235     -7432.1985      31.127711      31.304125      64.836037    
     31200   251.76058      0.1248         0.79091489    -7519.8263     -7913.7533      31.127711      31.304125      64.859102    
     31300   253.61468      0.1252         0.75101412    -7187.0951     -7639.2254      31.127711      31.304125      64.882168    
     31400   244.60655      0.1256         0.70021011    -6733.8796     -7282.0177      31.127711      31.304125      64.905233    
     31500   250.17297      0.126          0.68220522    -6331.3817     -6759.2466      31.127711      31.304125      64.928298    
     31600   254.45449      0.1264         0.62607171    -5995.6591     -6333.7455      31.127711      31.304125      64.951363    
     31700   249.15482      0.1268         0.57870693    -6106.4735     -6275.738       31.127711      31.304125      64.974428    
     31800   243.36518      0.1272         0.49894858    -5587.8501     -5787.2899      31.127711      31.304125      64.997493    
     31900   252.03554      0.1276         0.51070365    -5417.6241     -6166.1474      31.127711      31.304125      65.020558    
     32000   254.98009      0.128          0.47170018    -4968.5545     -5284.0069      31.127711      31.304125      65.043623    
     32100   252.19331      0.1284         0.51401868    -5244.4837     -6132.6322      31.127711      31.304125      65.066688    
     32200   249.71701    12      31.127711      31.304125      64.466995    
     29600   252.01851      0.1184         0.81218919    -7506.0681     -8133.2057      31.127711      31.304125      64.490061    
     29700   252.16908      0.1188         0.82658838    -7910.4081     -8312.101       31.127711      31.304125      64.513126    
     29800   256.34124      0.1192         0.78454587    -7393.729      -7904.6051      31.127711      31.304125      64.536191    
     29900   250.38541      0.1196         0.7165888       32600   254.99602      0.1304         0.57774276    -5575.279      -6139.9749      31.127711      31.304125      65.182014    
     32700   252.66973      0.1308         0.60625727    -6170.686      -6598.6228      31.127711      31.304125      65.205079    
     32800   250.34943      0.1312         0.6110825     -5916.5605     -6510.6533      31.127711      31.304125      65.228144    
     32900   252.24766      0.1316         0.53844474    -5439.2238     -6199.1704      31.127711      31.304125      65.251209    
     33000   248.67793      0.132          0.46183672    -5032.8321     -5292.0812      31.127711      31.304125      65.274274    
     33100   247.92107      0.1324         0.49181584    -5082.4716     -5901.3247      31.127711      31.304125      65.29734     
     33200   253.73536      0.1328         0.42643832    -4981.4113     -5387.308       31.127711      31.304125      65.320405    
     33300   252.19543      0.1332         0.47363177    -5207.0887     -5532.2876      31.127711      31.304125      65.34347     
     33400   248.72555      0.1336         0.51589555    -5776.1339     -6428.6561      31.127711      31.304125      65.366535    
     33500   246.86661      0.134          0.5348479     -5904.1145     -6200.9038      31.127711      31.304125      65.3896      
     33600   249.77072      0.1344         0.5880832     -6272.2364     -6421.8069      31.127711      31.304125      65.412665    
     33700   256.38899      0.1348         0.61520204    -6282.5198     -6864.4317      31.127711      31.304125      65.43573     
     33800   248.59566      0.1352         0.63488356    -6856.7117     -6892.9767      31.127711      31.304125      65.458795    
     33900   249.28359      0.1356         0.62779519    -6554.0399     -7059.8932      31.127711      31.304125      65.48186     
     34000   255.15843      0.136          0.5278661     -5680.0978     -6290.6844      31.127711      31.304125      65.504926    
     34100   251.90282      0.1364         0.48621287    -5491.466      -5586.8756      31.127711      31.304125      65.527991    
     34200   251.99352      0.1368         0.61646901    -6184.8485     -7046.1061      31.127711      31.304125      65.551056    
     34300   252.87995      0.1372         0.45343659    -4835.7918     -5917.9031      31.127711      31.304125      65.574121    
     34400   257.42544      0.1376         0.46753161    -5355.4761     -5954.2117      31.127711      31.304125      65.597186    
     34500   253.58454      0.138          0.48708489    -5028.5902     -5733.2099      31.127711      31.304125      65.620251    
     34600   254.05235      0.1384         0.42612535    -5617.4119     -5683.9367      31.127711      31.304125      65.643316    
     34700   248.61217      0.1388         0.41633561    -5264.6621     -5556.6836      31.127711      31.304125      65.666381    
     34800   250.64417      0.1392         0.54787445    -6425.7391     -7141.9155      31.127711      31.304125      65.689447    
     34900   249.60832      0.1396         0.41308259    -5629.3791     -6219.8734      31.127711      31.304125      65.712512    
     35000   250.7972       0.14           0.49479004    -5789.9021     -6698.4572      31.127711      31.304125      65.735577    
     35100   250.31372      0.1404         0.49386794    -5578.1651     -6734.9605      31.127711      31.304125      65.758642    
     35200   252.62858      0.1408         0.51155708    -6000.5711     -6733.4069      31.127711      31.304125      65.781707    
     35300   248.7973       0.    31.127711      31.304125      65.182014    
     32700   252.66973      0.1308         0.60625727    -6170.686      -6598.6228      31.127711      31.304125      65.205079    
     32800   250.34943      0.1312         0.6110825     -5916.5605     -6510.6533      31.127711      31.304125      65.228144    
     32900   252.24766      0.1316         0.53844474    -5439.2238     -6199.1704      31.127711      31.304125      65.251209    
     33000   248.67793      0.132          0.46183672      35700   250.03822      0.1428         0.4766028     -5309.6826     -6672.9375      31.127711      31.304125      65.897033    
     35800   252.09239      0.1432         0.44473798    -5495.134      -6171.0427      31.127711      31.304125      65.920098    
     35900   253.16047      0.1436         0.39866381    -5139.4372     -6138.0446      31.127711      31.304125      65.943163    
     36000   250.03196      0.144          0.40074888    -5193.9239     -5606.9058      31.127711      31.304125      65.966228    
     36100   255.21251      0.1444         0.44166937    -5101.6181     -5786.9986      31.127711      31.304125      65.989293    
     36200   257.12218      0.1448         0.53045969    -5374.6893     -6394.5084      31.127711      31.304125      66.012358    
     36300   250.92103      0.1452         0.55674911    -6148.1352     -6666.4032      31.127711      31.304125      66.035423    
     36400   251.8384       0.1456         0.55586845    -5561.2854     -6539.755       31.127711      31.304125      66.058488    
     36500   257.09121      0.146          0.45049411    -5331.0314     -6357.7513      31.127711      31.304125      66.081553    
     36600   252.65156      0.1464         0.60877199    -6267.9642     -7116.1533      31.127711      31.304125      66.104619    
[...]
     43300   244.74635      0.1732         0.49562579    -5199.36       -6221.4303      31.127711      31.304125      67.649981    
     43400   259.90418      0.1736         0.42774598    -4608.0415     -5788.4362      31.127711      31.304125      67.673046    
     43500   249.81791      0.174          0.37269472    -4497.2871     -5499.0214      31.127711      31.304125      67.696112    
     43600   251.65096      0.1744         0.3050902     -4132.2668     -4813.87        31.127711      31.304125      67.719177    
     43700   255.42435      0.1748         0.363108      -3750.337      -4983.0244      31.127711      31.304125      67.742242    
     43800   247.75086      0.1752         0.33096492    -3923.8937     -4943.1038      31.127711      31.304125      67.765307    
     43900   255.27172      0.1756         0.20845278    -2999.8771     -4104.4747      31.127711      31.304125      67.788372    
     44000   248.48541      0.176          0.2428754     -3063.1812     -4040.5716      31.127711      31.304125      67.811437    
     44100   248.2331       0.1764         0.2460008     -3996.6918     -4893.4349      31.127711      31.304125      67.834502    
     44200   254.29868      0.1768         0.40612495    -4487.2726     -5365.9085      31.127711      31.304125      67.857567    
     44300   252.13408      0.1772         0.37662532    -4368.1056     -5561.0588      31.127711      31.304125      67.880632    
     44400   254.32368      0.1776         0.41947225    -4772.5752     -5686.6886      31.127711      31.304125      67.903698    
     44500   250.25692      0.178          0.39721505    -4578.5899     -5329.0856      31.127711      31.304125      67.926763    
     44600   249.71935      0.1784        1      31.304125      67.32707     
     42000   251.53391      0.168          0.39083932    -4553.8831     -5318.9257      31.127711      31.304125      67.350135    
     42100   243.60743      0.1684         0.39417912    -4552.316      -5378.8552      31.127711      31.304125      67.3732      
     42200   254.94889      0.1688         0.34699405    -4035.1888     -4520.1468      31.127711      31.304125      67.396265    
     42300   246.62175      0.1692         0.25459628      45000   250.59144      0.18           0.18938671    -2745.0066     -3983.6716      31.127711      31.304125      68.042088    
     45100   250.00996      0.1804         0.16467359    -2831.5883     -3654.0732      31.127711      31.304125      68.065153    
     45200   246.96121      0.1808         0.1685489     -2341.938      -3685.215       31.127711      31.304125      68.088218    
     45300   251.53617      0.1812         0.21902283    -2872.42       -4074.7294      31.127711      31.304125      68.111284    
     45400   252.59039      0.1816         0.17378845    -2655.7456     -3687.1634      31.127711      31.304125      68.134349    
     45500   247.6992       0.182          0.15335382    -2701.5519     -4008.3151      31.127711      31.304125      68.157414    
     45600   240.00354      0.1824         0.29328833    -4293.545      -5311.5613      31.127711      31.304125      68.180479    
     45700   249.65659      0.1828         0.3099565     -3353.6122     -4561.1876      31.127711      31.304125      68.203544    
     45800   255.43009      0.1832         0.3333005     -3803.883      -5209.0008      31.127711      31.304125      68.226609    
     45900   247.99894      0.1836         0.42661932    -4503.351      -5486.4236      31.127711      31.304125      68.249674    
     46000   252.70972      0.184          0.36185838    -4265.0454     -5345.2283      31.127711      31.304125      68.272739    
     46100   249.67163      0.1844         0.42610573    -4677.0634     -5437.197       31.127711      31.304125      68.295804    
     46200   251.90063      0.1848         0.44113783    -4075.1571     -5716.0866      31.127711      31.304125      68.31887     
     46300   253.83528      0.1852         0.26696973    -2636.9016     -4411.1956      31.127711      31.304125      68.341935    
     46400   247.87855      0.1856         0.21321222    -2819.6232     -3879.1099      31.127711      31.304125      68.365       
     46500   249.91164      0.186          0.16456998    -3197.6432     -3620.6444      31.127711      31.304125      68.388065    
     46600   249.74002      0.1864         0.1567128     -2431.3738     -3560.0408      31.127711      31.304125      68.41113     
     46700   258.74729      0.1868         0.14721069    -2325.7763     -3582.2882      31.127711      31.304125      68.434195    
     46800   253.62298      0.1872         0.19966482    -2537.1716     -3570.5499      31.127711      31.304125      68.45726     
     46900   253.09365      0.1876         0.30275847    -3966.0384     -4669.2538      31.127711      31.304125      68.480325    
     47000   254.95679      0.188          0.4154812     -4458.4882     -5305.6798      31.127711      31.304125      68.503391    
     47100   250.39602      0.1884         0.40544206    -4409.6127     -4775.5207      31.127711      31.304125      68.526456    
     47200   249.95461      0.1888         0.49876794    -5165.1763     -5978.9874      31.127711      31.304125      68.549521    
     47300   254.68975      0.1892         0.29017444    -3688.3871     -4758.1835      31.127711      31.304125      68.572586    
     47400   252.51685      0.1896         0.30519353    -3942.8775     -5167.9917      31.127711      31.304125      68.595651    
     47500   254.66965      0.19           0.32249274    -4033.5329     -5445.0065      31.127711      31.304125      68.618716    
     47600   254.54354      0.1904         0.32528192    -4015.7169     -5059.0409      31.127711      31.304125      68.641781    
     47700   248.9031       0.1908         0.2   31.304125      68.042088    
     45100   250.00996      0.1804         0.16467359    -2831.5883     -3654.0732      31.127711      31.304125      68.065153    
     45200   246.96121      0.1808         0.1685489     -2341.938      -3685.215       31.127711      31.304125      68.088218    
     45300   251.53617      0.1812         0.21902283    -2872.42       -4074.7294      31.127711      31.304125      68.111284    
     45400   252.59039      0.1816         0.17378845      48100   249.00049      0.1924         0.21579782    -2907.3895     -4046.6286      31.127711      31.304125      68.757107    
     48200   250.97871      0.1928         0.20713933    -3332.4837     -3981.8798      31.127711      31.304125      68.780172    
     48300   252.14911      0.1932         0.28691612    -3371.953      -4921.437       31.127711      31.304125      68.803237    
     48400   257.47803      0.1936         0.35174853    -4314.6287     -5649.0245      31.127711      31.304125      68.826302    
     48500   248.36695      0.194          0.38952052    -4651.7225     -5740.7122      31.127711      31.304125      68.849367    
     48600   253.66996      0.1944         0.4499969     -4884.9185     -5776.0398      31.127711      31.304125      68.872432    
     48700   252.54686      0.1948         0.43997034    -4251.9318     -5134.4285      31.127711      31.304125      68.895497    
     48800   249.40012      0.1952         0.38266697    -4944.2608     -5163.7286      31.127711      31.304125      68.918563    
     48900   255.34492      0.1956         0.37012828    -3914.8128     -5415.9614      31.127711      31.304125      68.941628    
     49000   253.29716      0.196          0.2401574     -3510.5296     -4708.4664      31.127711      31.304125      68.964693    
     49100   250.61276      0.1964         0.18411673    -3026.2613     -4154.309       31.127711      31.304125      68.987758    
     49200   253.99565      0.1968         0.16644999    -3157.9277     -3984.294       31.127711      31.304125      69.010823    
     49300   254.98074      0.1972         0.15119697    -2777.3229     -3512.3244      31.127711      31.304125      69.033888    
     49400   252.77737      0.1976         0.26501184    -3402.9224     -4371.0769      31.127711      31.304125      69.056953    
     49500   248.82745      0.198          0.41637216    -4530.0964     -5264.0578      31.127711      31.304125      69.080018    
     49600   250.57438      0.1984         0.30235629    -3659.519      -4644.8504      31.127711      31.304125      69.103083    
     49700   251.72141      0.1988         0.21190962    -3056.2172     -4693.7009      31.127711      31.304125      69.126149    
     49800   253.11624      0.1992         0.3734592     -4545.5009     -5500.3099      31.127711      31.304125      69.149214    
     49900   254.33488      0.1996         0.34452452    -3932.0524     -5334.909       31.127711      31.304125      69.172279    
     50000   252.73721      0.2            0.45432433    -4154.9907     -5448.1054      31.127711      31.304125      69.195344    
     50100   254.39586      0.2004         0.36647036    -4244.251      -4707.782       31.127711      31.304125      69.218409    
     50200   249.19751      0.2008         0.35163981    -4214.3146     -5280.8356      31.127711      31.304125      69.241474    
     50300   248.65912      0.2012         0.39392829    -4017.0628     -5226.6833      31.127711      31.304125      69.264539    
     50400   257.75027      0.2016         0.17501745    -3065.9803     -4112.4906      31.127711      31.304125      69.287604    
     50500   252.57451      0.202          0.23309775    -3155.7357     -4421.944       31.127711      31.304125      69.31067     
     50600   249.04551      0.2024         0.12307809    -2274.685      -3593.9242      31.127711      31.304125      69.333735    
     50700   250.00648      0.2028         0.11067082    -2653.434      -3674.4289      31.127711      31.304125      69.3568      
     50800   255.83956      0.2032         0.130591.304125      68.757107    
     48200   250.97871      0.1928         0.20713933    -3332.4837     -3981.8798      31.127711      31.304125      68.780172    
     48300   252.14911      0.1932         0.28691612    -3371.953      -4921.437       31.127711      31.304125      68.803237    
     48400   257.47803      0.1936         0.35174853    -4314.6287     -5649.0245      31.127711      31.304125      68.826302    
     48500   248.36695      0.194          0.38952052      51200   251.4805       0.2048         0.28129467    -3557.1196     -4514.1892      31.127711      31.304125      69.472125    
     51300   241.49887      0.2052         0.27979888    -3523.8264     -4877.7058      31.127711      31.304125      69.49519     
     51400   256.16636      0.2056         0.24226047    -3676.883      -4209.301       31.127711      31.304125      69.518256    
     51500   252.37932      0.206          0.23711107    -4254.3439     -4610.6323      31.127711      31.304125      69.541321    
     51600   245.00373      0.2064         0.21128363    -3190.1982     -4285.6719      31.127711      31.304125      69.564386    
     51700   252.76338      0.2068         0.21071921    -3514.1976     -3551.1508      31.127711      31.304125      69.587451    
     51800   251.91757      0.2072         0.23230265    -3112.0467     -4508.4247      31.127711      31.304125      69.610516    
     51900   243.02629      0.2076         0.28317074    -3603.154      -4455.1267      31.127711      31.304125      69.633581    
     52000   246.61421      0.208          0.18803713    -3068.5585     -4307.7106      31.127711      31.304125      69.656646    
     52100   254.96116      0.2084         0.18365874    -3504.9119     -4139.5962      31.127711      31.304125      69.679711    
     52200   248.84839      0.2088         0.14123238    -2457.7032     -3592.2137      31.127711      31.304125      69.702776    
     52300   246.4007       0.2092         0.12932628    -2929.4699     -3611.2421      31.127711      31.304125      69.725842    
     52400   252.42177      0.2096         0.18812761    -2764.0451     -4049.1473      31.127711      31.304125      69.748907    
     52500   251.37326      0.21           0.18788814    -3447.0521     -4151.9487      31.127711      31.304125      69.771972    
     52600   246.08859      0.2104         0.24032259    -3211.2515     -4398.42        31.127711      31.304125      69.795037    
     52700   250.39906      0.2108         0.17601524    -2899.6825     -4003.5218      31.127711      31.304125      69.818102    
     52800   255.76372      0.2112         0.21956986    -3429.2845     -4158.2202      31.127711      31.304125      69.841167    
     52900   251.43212      0.2116         0.29954083    -3823.0601     -4861.7239      31.127711      31.304125      69.864232    
     53000   256.90108      0.212          0.21627428    -3990.9632     -4462.3023      31.127711      31.304125      69.887297    
     53100   255.03007      0.2124         0.15161207    -2827.6211     -3973.7833      31.127711      31.304125      69.910363    
     53200   245.44477      0.2128         0.13903228    -2692.8498     -4161.4445      31.127711      31.304125      69.933428    
     53300   252.30832      0.2132         0.20188343    -2840.2847     -3745.312       31.127711      31.304125      69.956493    
     53400   251.02501      0.2136         0.15902843    -2788.0404     -3615.1566      31.127711      31.304125      69.979558    
     53500   249.69888      0.214          0.1894724     -3316.2594     -4201.6105      31.127711      31.304125      70.002623    
     53600   251.66097      0.2144         0.25092436    -3650.2895     -4624.9191      31.127711      31.304125      70.025688    
     53700   248.85152      0.2148         0.20993989    -2909.62       -4167.7052      31.127711      31.304125      70.048753    
     53800   250.37212      0.2152         0.19920525    -3179.733      -4219.0495      31.127711      31.304125      70.071818    
     53900   249.54603      0.2156         0.2323378  4125      69.472125    
     51300   241.49887      0.2052         0.27979888    -3523.8264     -4877.7058      31.127711      31.304125      69.49519     
     51400   256.16636      0.2056         0.24226047    -3676.883      -4209.301       31.127711      31.304125      69.518256    
     51500   252.37932      0.206          0.23711107    -4254.3439     -4610.6323      31.127711      31.304125      69.541321    
     51600   245.00373      0.2064         0.21128363      54300   254.96041      0.2172         0.18077473    -2644.3773     -4139.373       31.127711      31.304125      70.187144    
     54400   253.16831      0.2176         0.24085463    -3487.4216     -4475.1877      31.127711      31.304125      70.210209    
     54500   252.26108      0.218          0.25716721    -3624.3434     -4435.76        31.127711      31.304125      70.233274    
     54600   246.16488      0.2184         0.23648989    -3097.701      -4272.143       31.127711      31.304125      70.256339    
Fix halt condition for fix-id halt_frac met on step 54700 with value 1
     54700   252.11191      0.2188         0.076083792   -2239.6203     -3005.5776      31.127711      31.304125      70.279404    
Loop time of 151.582 on 4 procs for 54700 steps with 4296 atoms

Performance: 62.357 ns/day, 0.385 hours/ns, 360.860 timesteps/s, 1.550 Matom-step/s
103.7% CPU use with 4 MPI tasks x 1 OpenMP threads

MPI task timing breakdown:
Section |  min time  |  avg time  |  max time  |%varavg| %total
---------------------------------------------------------------
Pair    | 91.101     | 115.63     | 141.16     | 191.9 | 76.28
Neigh   | 0.81454    | 1.4073     | 2.2376     |  49.7 |  0.93
Comm    | 3.7195     | 26.804     | 55.184     | 374.0 | 17.68
Output  | 1.7505     | 2.1583     | 2.5679     |  20.2 |  1.42
Modify  | 1.4287     | 4.8472     | 14.917     | 264.1 |  3.20
Other   |            | 0.7402     |            |       |  0.49

Nlocal:           1074 ave        1584 max         462 min
Histogram: 1 0 0 0 0 1 1 0 0 1
Nghost:        3214.75 ave        3896 max        2588 min
Histogram: 1 0 1 0 0 0 1 0 0 1
Neighs:          95079 ave      171813 max       33835 min
Histogram: 1 0 1 0 0 1 0 0 0 1

Total # of neighbors = 380316
Ave neighs/atom = 88.527933
Neighbor list builds = 859
Dangerous builds = 0
Total wall time: 0:03:17
462.3023      31.127711      31.304125      69.887297    
     53100   255.03007      0.2124         0.15161207    -2827.6211     -3973.7833      31.127711      31.304125      69.910363    
     53200   245.44477      0.2128         0.13903228    -2692.8498     -4161.4445      31.127711      31.304125      69.933428    
     53300   252.30832      0.2132         0.20188343    -2840.2847     -3745.312       31.127711      31.304125      69.956493    
     53400   251.02501      0.2136         0.15902843    -2788.0404     -3615.1566      31.127711      31.304125      69.979558    
     53500   249.69888      0.214          0.1894724     -3316.2594     -4201.6105      31.127711      31.304125      70.002623    
     53600   251.66097      0.2144         0.25092436    -3650.2895     -4624.9191      31.127711      31.304125      70.025688    
     53700   248.85152      0.2148         0.20993989    -2909.62       -4167.7052      31.127711      31.304125      70.048753    
     53800   250.37212      0.2152         0.19920525    -3179.733      -4219.0495      31.127711      31.304125      70.071818    
     53900   249.54603      0.2156         0.2323378     -3723.3715     -4762.2538      31.127711      31.304125      70.094883    
     54000   253.88905      0.216          0.21078896    -2917.3584     -4053.3241      31.127711      31.304125      70.117949    
     54100   252.20841      0.2164         0.21310451    -3093.7986     -4456.6136      31.127711      31.304125      70.141014    
     54200   251.3618       0.2168         0.20718867    -3239.6412     -4490.2292      31.127711      31.304125      70.164079    
     54300   254.96041      0.2172         0.18077473    -2644.3773     -4139.373       31.127711      31.304125      70.187144    
     54400   253.16831      0.2176         0.24085463    -3487.4216     -4475.1877      31.127711      31.304125      70.210209    
     54500   252.26108      0.218          0.25716721    -3624.3434     -4435.76        31.127711      31.304125      70.233274    
     54600   246.16488      0.2184         0.23648989    -3097.701      -4272.143       31.127711      31.304125      70.256339    
Fix halt condition for fix-id halt_frac met on step 54700 with value 1
     54700   252.11191      0.2188         0.076083792   -2239.6203     -3005.5776      31.127711      31.304125      70.279404    
Loop time of 151.582 on 4 procs for 54700 steps with 4296 atoms

Performance: 62.357 ns/day, 0.385 hours/ns, 360.860 timesteps/s, 1.550 Matom-step/s
103.7% CPU use with 4 MPI tasks x 1 OpenMP threads

MPI task timing breakdown:
Section |  min time  |  avg time  |  max time  |%varavg| %total
---------------------------------------------------------------
Pair    | 91.101     | 115.63     | 141.16     | 191.9 | 76.28
Neigh   | 0.81454    | 1.4073     | 2.2376     |  49.7 |  0.93
Comm    | 3.7195     | 26.804     | 55.184     | 374.0 | 17.68
Output  | 1.7505     | 2.1583     | 2.5679     |  20.2 |  1.42
Modify  | 1.4287     | 4.8472     | 14.917     | 264.1 |  3.20
Other   |            | 0.7402     |            |       |  0.49

Nlocal:           1074 ave        1584 max         462 min
Histogram: 1 0 0 0 0 1 1 0 0 1
Nghost:        3214.75 ave        3896 max        2588 min
Histogram: 1 0 1 0 0 0 1 0 0 1
Neighs:          95079 ave      171813 max       33835 min
Histogram: 1 0 1 0 0 1 0 0 0 1

Total # of neighbors = 380316
Ave neighs/atom = 88.527933
Neighbor list builds = 859
Dangerous builds = 0
Total wall time: 0:03:17
