(written by ASE)

7776 atoms
1 atom types

0.0       51.90446616621734  xlo xhi
0.0      48.936000000000007  ylo yhi
0.0       51.90446616621734  zlo zhi

Atoms # atomic

     1   1      2.8835814536787407                       0  3.9661714930916714e-18
     2   1      4.3253721805181113      2.0390000000000001      1.4417907268393704
     3   1                       0                       0                       0
     4   1      1.4417907268393704      2.0390000000000001      1.4417907268393704
     5   1 -2.1807843343193964e-16                       0      2.8835814536787412
     6   1      2.8835814536787407                       0      2.8835814536787407
     7   1      4.3253721805181113      2.0390000000000001      4.3253721805181113
     8   1      1.4417907268393702      2.0390000000000001      4.3253721805181113
     9   1      2.8835814536787412                       0      5.7671629073574815
    10   1      4.3253721805181113      2.0390000000000001      7.2089536341968516
    11   1  7.9323429861833427e-18                       0      5.7671629073574815
    12   1      1.4417907268393706      2.0390000000000001      7.2089536341968525
    13   1  1.0387240129099869e-16                       0      8.6507443610362227
    14   1      2.8835814536787407                       0      8.6507443610362227
    15   1      4.3253721805181105      2.0390000000000001      10.092535087875593
    16   1      1.4417907268393702      2.0390000000000001      10.092535087875593
    17   1      2.8835814536787403                       0      11.534325814714963
    18   1      4.3253721805181113      2.0390000000000001      12.976116541554335
    19   1  1.5864685972366685e-17                       0      11.534325814714963
    20   1      1.4417907268393702      2.0390000000000001      12.976116541554333
    21   1 -7.2143029346265319e-17                       0      14.417907268393703
    22   1      2.8835814536787412                       0      14.417907268393705
    23   1      4.3253721805181113      2.0390000000000001      15.859697995233075
    24   1      1.4417907268393713      2.0390000000000001      15.859697995233075
    25   1      2.8835814536787403                       0      17.301488722072445
    26   1      4.3253721805181105      2.0390000000000001      18.743279448911817
    27   1  2.0774480258199738e-16                       0      17.301488722072445
    28   1      1.4417907268393704      2.0390000000000001      18.743279448911817
    29   1 -1.6566197521368851e-15                       0      20.185070175751189
    30   1      2.8835814536787403                       0      20.185070175751186
    31   1      4.3253721805181113      2.0390000000000001      21.626860902590558
    32   1      1.4417907268393684      2.0390000000000001      21.626860902590558
    33   1      2.8835814536787416                       0      23.068651629429926
    34   1      4.3253721805181105      2.0390000000000001      24.510442356269294
    35   1  3.1729371944733371e-17                       0      23.068651629429926
    36   1      1.4417907268393713      2.0390000000000001      24.510442356269298
    37   1 -5.7656121582712916e-16                       0       25.95223308310867
    38   1      2.8835814536787403                       0      25.952233083108666
    39   1      4.3253721805181113      2.0390000000000001      27.394023809948038
    40   1      1.4417907268393682      2.0390000000000001      27.394023809948038
    41   1       2.883581453678743                       0      28.835814536787407
    42   1      4.3253721805181122      2.0390000000000001      30.277605263626775
    43   1 -1.4428605869253064e-16                       0      28.835814536787407
    44   1      1.4417907268393713      2.0390000000000001      30.277605263626779
    45   1 -7.5257664646439317e-16                       0       31.71939599046615
    46   1      2.8835814536787399                       0      31.719395990466147
    47   1      4.3253721805181113      2.0390000000000001      33.161186717305519
    48   1      1.4417907268393682      2.0390000000000001      33.161186717305519
    49   1      2.8835814536787421                       0      34.602977444144891
    50   1      4.3253721805181105      2.0390000000000001      36.044768170984263
    51   1  4.1548960516399476e-16                       0      34.602977444144891
    52   1      1.4417907268393717      2.0390000000000001      36.044768170984263
    53   1 -1.9280098260786777e-16                       0      37.486558897823635
    54   1      2.8835814536787407                       0      37.486558897823635
    55   1      4.3253721805181122      2.0390000000000001      38.928349624662999
    56   1      1.4417907268393686      2.0390000000000001      38.928349624663007
    57   1      2.8835814536787434                       0      40.370140351502371
    58   1      4.3253721805181122      2.0390000000000001      41.811931078341743
    59   1  2.3947417452673075e-16                       0      40.370140351502371
    60   1      1.4417907268393715      2.0390000000000001      41.811931078341743
    61   1 -3.6881641324513178e-16                       0      43.253721805181115
    62   1      2.8835814536787403                       0      43.253721805181115
    63   1      4.3253721805181113      2.0390000000000001       44.69551253202048
    64   1      1.4417907268393684      2.0390000000000001      44.695512532020487
    65   1      2.8835814536787434                       0      46.137303258859852
    66   1      4.3253721805181149      2.0390000000000001      47.579093985699224
    67   1  6.3458743889466742e-17                       0      46.137303258859852
    68   1      1.4417907268393715      2.0390000000000001      47.579093985699224
    69   1 -5.4483184388239579e-16                       0      49.020884712538596
    70   1      2.8835814536787425                       0      49.020884712538596
    71   1      4.3253721805181087      2.0390000000000001      50.462675439377961
    72   1      1.4417907268393708      2.0390000000000001      50.462675439377968
    73   1      2.8835814536787407      4.0780000000000003  3.9661714930916714e-18
    74   1      4.3253721805181113      6.1170000000000009      1.4417907268393704
    75   1                       0      4.0780000000000003                       0
    76   1      1.4417907268393704      6.1170000000000009      1.4417907268393704
    77   1 -2.1807843343193964e-16      4.0780000000000003      2.8835814536787412
    78   1      2.8835814536787407      4.0780000000000003      2.8835814536787407
    79   1      4.3253721805181113      6.1170000000000009      4.3253721805181113
    80   1      1.4417907268393702      6.1170000000000009      4.3253721805181113
    81   1      2.8835814536787412      4.0780000000000003      5.7671629073574815
    82   1      4.3253721805181113      6.1170000000000009      7.2089536341968516
    83   1  7.9323429861833427e-18      4.0780000000000003      5.7671629073574815
    84   1      1.4417907268393706      6.1170000000000009      7.2089536341968525
    85   1  1.0387240129099869e-16      4.0780000000000003      8.6507443610362227
    86   1      2.8835814536787407      4.0780000000000003      8.6507443610362227
    87   1      4.3253721805181105      6.1170000000000009      10.092535087875593
    88   1      1.4417907268393702      6.1170000000000009      10.092535087875593
    89   1      2.8835814536787403      4.0780000000000003      11.534325814714963
    90   1      4.3253721805181113      6.1170000000000009      12.976116541554335
    91   1  1.5864685972366685e-17      4.0780000000000003      11.534325814714963
    92   1      1.4417907268393702      6.1170000000000009      12.976116541554333
    93   1 -7.2143029346265319e-17      4.0780000000000003      14.417907268393703
    94   1      2.8835814536787412      4.0780000000000003      14.417907268393705
    95   1      4.3253721805181113      6.1170000000000009      15.859697995233075
    96   1      1.4417907268393713      6.1170000000000009      15.859697995233075
    97   1      2.8835814536787403      4.0780000000000003      17.301488722072445
    98   1      4.3253721805181105      6.1170000000000009      18.743279448911817
    99   1  2.0774480258199738e-16      4.0780000000000003      17.301488722072445
   100   1      1.4417907268393704      6.1170000000000009      18.743279448911817
   101   1 -1.6566197521368851e-15      4.0780000000000003      20.185070175751189
   102   1      2.8835814536787403      4.0780000000000003      20.185070175751186
   103   1      4.3253721805181113      6.1170000000000009      21.626860902590558
   104   1      1.4417907268393684      6.1170000000000009      21.626860902590558
   105   1      2.8835814536787416      4.0780000000000003      23.068651629429926
   106   1      4.3253721805181105      6.1170000000000009      24.510442356269294
   107   1  3.1729371944733371e-17      4.0780000000000003      23.068651629429926
   108   1      1.4417907268393713      6.1170000000000009      24.510442356269298
   109   1 -5.7656121582712916e-16      4.0780000000000003       25.95223308310867
   110   1      2.8835814536787403      4.0780000000000003      25.952233083108666
   111   1      4.3253721805181113      6.1170000000000009      27.394023809948038
   112   1      1.4417907268393682      6.1170000000000009      27.394023809948038
   113   1       2.883581453678743      4.0780000000000003      28.835814536787407
   114   1      4.3253721805181122      6.1170000000000009      30.277605263626775
   115   1 -1.4428605869253064e-16      4.0780000000000003      28.835814536787407
   116   1      1.4417907268393713      6.1170000000000009      30.277605263626779
   117   1 -7.5257664646439317e-16      4.0780000000000003       31.71939599046615
   118   1      2.8835814536787399      4.0780000000000003      31.719395990466147
   119   1      4.3253721805181113      6.1170000000000009      33.161186717305519
   120   1      1.4417907268393682      6.1170000000000009      33.161186717305519
   121   1      2.8835814536787421      4.0780000000000003      34.602977444144891
   122   1      4.3253721805181105      6.1170000000000009      36.044768170984263
   123   1  4.1548960516399476e-16      4.0780000000000003      34.602977444144891
   124   1      1.4417907268393717      6.1170000000000009      36.044768170984263
   125   1 -1.9280098260786777e-16      4.0780000000000003      37.486558897823635
   126   1      2.8835814536787407      4.0780000000000003      37.486558897823635
   127   1      4.3253721805181122      6.1170000000000009      38.928349624662999
   128   1      1.4417907268393686      6.1170000000000009      38.928349624663007
   129   1      2.8835814536787434      4.0780000000000003      40.370140351502371
   130   1      4.3253721805181122      6.1170000000000009      41.811931078341743
   131   1  2.3947417452673075e-16      4.0780000000000003      40.370140351502371
   132   1      1.4417907268393715      6.1170000000000009      41.811931078341743
   133   1 -3.6881641324513178e-16      4.0780000000000003      43.253721805181115
   134   1      2.8835814536787403      4.0780000000000003      43.253721805181115
   135   1      4.3253721805181113      6.1170000000000009       44.69551253202048
   136   1      1.4417907268393684      6.1170000000000009      44.695512532020487
   137   1      2.8835814536787434      4.0780000000000003      46.137303258859852
   138   1      4.3253721805181149      6.1170000000000009      47.579093985699224
   139   1  6.3458743889466742e-17      4.0780000000000003      46.137303258859852
   140   1      1.4417907268393715      6.1170000000000009      47.579093985699224
   141   1 -5.4483184388239579e-16      4.0780000000000003      49.020884712538596
   142   1      2.8835814536787425      4.0780000000000003      49.020884712538596
   143   1      4.3253721805181087      6.1170000000000009      50.462675439377961
   144   1      1.4417907268393708      6.1170000000000009      50.462675439377968
   145   1      2.8835814536787407      8.1560000000000006  3.9661714930916714e-18
   146   1      4.3253721805181113                  10.195      1.4417907268393704
   147   1                       0      8.1560000000000006                       0
   148   1      1.4417907268393704                  10.195      1.4417907268393704
   149   1 -2.1807843343193964e-16      8.1560000000000006      2.8835814536787412
   150   1      2.8835814536787407      8.1560000000000006      2.8835814536787407
   151   1      4.3253721805181113                  10.195      4.3253721805181113
   152   1      1.4417907268393702                  10.195      4.3253721805181113
   153   1      2.8835814536787412      8.1560000000000006      5.7671629073574815
   154   1      4.3253721805181113                  10.195      7.2089536341968516
   155   1  7.9323429861833427e-18      8.1560000000000006      5.7671629073574815
   156   1      1.4417907268393706                  10.195      7.2089536341968525
   157   1  1.0387240129099869e-16      8.1560000000000006      8.6507443610362227
   158   1      2.8835814536787407      8.1560000000000006      8.6507443610362227
   159   1      4.3253721805181105                  10.195      10.092535087875593
   160   1      1.4417907268393702                  10.195      10.092535087875593
   161   1      2.8835814536787403      8.1560000000000006      11.534325814714963
   162   1      4.3253721805181113                  10.195      12.976116541554335
   163   1  1.5864685972366685e-17      8.1560000000000006      11.534325814714963
   164   1      1.4417907268393702                  10.195      12.976116541554333
   165   1 -7.2143029346265319e-17      8.1560000000000006      14.417907268393703
   166   1      2.8835814536787412      8.1560000000000006      14.417907268393705
   167   1      4.3253721805181113                  10.195      15.859697995233075
   168   1      1.4417907268393713                  10.195      15.859697995233075
   169   1      2.8835814536787403      8.1560000000000006      17.301488722072445
   170   1      4.3253721805181105                  10.195      18.743279448911817
   171   1  2.0774480258199738e-16      8.1560000000000006      17.301488722072445
   172   1      1.4417907268393704                  10.195      18.743279448911817
   173   1 -1.6566197521368851e-15      8.1560000000000006      20.185070175751189
   174   1      2.8835814536787403      8.1560000000000006      20.185070175751186
   175   1      4.3253721805181113                  10.195      21.626860902590558
   176   1      1.4417907268393684                  10.195      21.626860902590558
   177   1      2.8835814536787416      8.1560000000000006      23.068651629429926
   178   1      4.3253721805181105                  10.195      24.510442356269294
   179   1  3.1729371944733371e-17      8.1560000000000006      23.068651629429926
   180   1      1.4417907268393713                  10.195      24.510442356269298
   181   1 -5.7656121582712916e-16      8.1560000000000006       25.95223308310867
   182   1      2.8835814536787403      8.1560000000000006      25.952233083108666
   183   1      4.3253721805181113                  10.195      27.394023809948038
   184   1      1.4417907268393682                  10.195      27.394023809948038
   185   1       2.883581453678743      8.1560000000000006      28.835814536787407
   186   1      4.3253721805181122                  10.195      30.277605263626775
   187   1 -1.4428605869253064e-16      8.1560000000000006      28.835814536787407
   188   1      1.4417907268393713                  10.195      30.277605263626779
   189   1 -7.5257664646439317e-16      8.1560000000000006       31.71939599046615
   190   1      2.8835814536787399      8.1560000000000006      31.719395990466147
   191   1      4.3253721805181113                  10.195      33.161186717305519
   192   1      1.4417907268393682                  10.195      33.161186717305519
   193   1      2.8835814536787421      8.1560000000000006      34.602977444144891
   194   1      4.3253721805181105                  10.195      36.044768170984263
   195   1  4.1548960516399476e-16      8.1560000000000006      34.602977444144891
   196   1      1.4417907268393717                  10.195      36.044768170984263
   197   1 -1.9280098260786777e-16      8.1560000000000006      37.486558897823635
   198   1      2.8835814536787407      8.1560000000000006      37.486558897823635
   199   1      4.3253721805181122                  10.195      38.928349624662999
   200   1      1.4417907268393686                  10.195      38.928349624663007
   201   1      2.8835814536787434      8.1560000000000006      40.370140351502371
   202   1      4.3253721805181122                  10.195      41.811931078341743
   203   1  2.3947417452673075e-16      8.1560000000000006      40.370140351502371
   204   1      1.4417907268393715                  10.195      41.811931078341743
   205   1 -3.6881641324513178e-16      8.1560000000000006      43.253721805181115
   206   1      2.8835814536787403      8.1560000000000006      43.253721805181115
   207   1      4.3253721805181113                  10.195       44.69551253202048
   208   1      1.4417907268393684                  10.195      44.695512532020487
   209   1      2.8835814536787434      8.1560000000000006      46.137303258859852
   210   1      4.3253721805181149                  10.195      47.579093985699224
   211   1  6.3458743889466742e-17      8.1560000000000006      46.137303258859852
   212   1      1.4417907268393715                  10.195      47.579093985699224
   213   1 -5.4483184388239579e-16      8.1560000000000006      49.020884712538596
   214   1      2.8835814536787425      8.1560000000000006      49.020884712538596
   215   1      4.3253721805181087                  10.195      50.462675439377961
   216   1      1.4417907268393708                  10.195      50.462675439377968
   217   1      2.8835814536787407      12.234000000000002  3.9661714930916714e-18
   218   1      4.3253721805181113      14.273000000000001      1.4417907268393704
   219   1                       0      12.234000000000002                       0
   220   1      1.4417907268393704      14.273000000000001      1.4417907268393704
   221   1 -2.1807843343193964e-16      12.234000000000002      2.8835814536787412
   222   1      2.8835814536787407      12.234000000000002      2.8835814536787407
   223   1      4.3253721805181113      14.273000000000001      4.3253721805181113
   224   1      1.4417907268393702      14.273000000000001      4.3253721805181113
   225   1      2.8835814536787412      12.234000000000002      5.7671629073574815
   226   1      4.3253721805181113      14.273000000000001      7.2089536341968516
   227   1  7.9323429861833427e-18      12.234000000000002      5.7671629073574815
   228   1      1.4417907268393706      14.273000000000001      7.2089536341968525
   229   1  1.0387240129099869e-16      12.234000000000002      8.6507443610362227
   230   1      2.8835814536787407      12.234000000000002      8.6507443610362227
   231   1      4.3253721805181105      14.273000000000001      10.092535087875593
   232   1      1.4417907268393702      14.273000000000001      10.092535087875593
   233   1      2.8835814536787403      12.234000000000002      11.534325814714963
   234   1      4.3253721805181113      14.273000000000001      12.976116541554335
   235   1  1.5864685972366685e-17      12.234000000000002      11.534325814714963
   236   1      1.4417907268393702      14.273000000000001      12.976116541554333
   237   1 -7.2143029346265319e-17      12.234000000000002      14.417907268393703
   238   1      2.8835814536787412      12.234000000000002      14.417907268393705
   239   1      4.3253721805181113      14.273000000000001      15.859697995233075
   240   1      1.4417907268393713      14.273000000000001      15.859697995233075
   241   1      2.8835814536787403      12.234000000000002      17.301488722072445
   242   1      4.3253721805181105      14.273000000000001      18.743279448911817
   243   1  2.0774480258199738e-16      12.234000000000002      17.301488722072445
   244   1      1.4417907268393704      14.273000000000001      18.743279448911817
   245   1 -1.6566197521368851e-15      12.234000000000002      20.185070175751189
   246   1      2.8835814536787403      12.234000000000002      20.185070175751186
   247   1      4.3253721805181113      14.273000000000001      21.626860902590558
   248   1      1.4417907268393684      14.273000000000001      21.626860902590558
   249   1      2.8835814536787416      12.234000000000002      23.068651629429926
   250   1      4.3253721805181105      14.273000000000001      24.510442356269294
   251   1  3.1729371944733371e-17      12.234000000000002      23.068651629429926
   252   1      1.4417907268393713      14.273000000000001      24.510442356269298
   253   1 -5.7656121582712916e-16      12.234000000000002       25.95223308310867
   254   1      2.8835814536787403      12.234000000000002      25.952233083108666
   255   1      4.3253721805181113      14.273000000000001      27.394023809948038
   256   1      1.4417907268393682      14.273000000000001      27.394023809948038
   257   1       2.883581453678743      12.234000000000002      28.835814536787407
   258   1      4.3253721805181122      14.273000000000001      30.277605263626775
   259   1 -1.4428605869253064e-16      12.234000000000002      28.835814536787407
   260   1      1.4417907268393713      14.273000000000001      30.277605263626779
   261   1 -7.5257664646439317e-16      12.234000000000002       31.71939599046615
   262   1      2.8835814536787399      12.234000000000002      31.719395990466147
   263   1      4.3253721805181113      14.273000000000001      33.161186717305519
   264   1      1.4417907268393682      14.273000000000001      33.161186717305519
   265   1      2.8835814536787421      12.234000000000002      34.602977444144891
   266   1      4.3253721805181105      14.273000000000001      36.044768170984263
   267   1  4.1548960516399476e-16      12.234000000000002      34.602977444144891
   268   1      1.4417907268393717      14.273000000000001      36.044768170984263
   269   1 -1.9280098260786777e-16      12.234000000000002      37.486558897823635
   270   1      2.8835814536787407      12.234000000000002      37.486558897823635
   271   1      4.3253721805181122      14.273000000000001      38.928349624662999
   272   1      1.4417907268393686      14.273000000000001      38.928349624663007
   273   1      2.8835814536787434      12.234000000000002      40.370140351502371
   274   1      4.3253721805181122      14.273000000000001      41.811931078341743
   275   1  2.3947417452673075e-16      12.234000000000002      40.370140351502371
   276   1      1.4417907268393715      14.273000000000001      41.811931078341743
   277   1 -3.6881641324513178e-16      12.234000000000002      43.253721805181115
   278   1      2.8835814536787403      12.234000000000002      43.253721805181115
   279   1      4.3253721805181113      14.273000000000001       44.69551253202048
   280   1      1.4417907268393684      14.273000000000001      44.695512532020487
   281   1      2.8835814536787434      12.234000000000002      46.137303258859852
   282   1      4.3253721805181149      14.273000000000001      47.579093985699224
   283   1  6.3458743889466742e-17      12.234000000000002      46.137303258859852
   284   1      1.4417907268393715      14.273000000000001      47.579093985699224
   285   1 -5.4483184388239579e-16      12.234000000000002      49.020884712538596
   286   1      2.8835814536787425      12.234000000000002      49.020884712538596
   287   1      4.3253721805181087      14.273000000000001      50.462675439377961
   288   1      1.4417907268393708      14.273000000000001      50.462675439377968
   289   1      2.8835814536787407      16.312000000000001  3.9661714930916714e-18
   290   1      4.3253721805181113      18.351000000000003      1.4417907268393704
   291   1                       0      16.312000000000001                       0
   292   1      1.4417907268393704      18.351000000000003      1.4417907268393704
   293   1 -2.1807843343193964e-16      16.312000000000001      2.8835814536787412
   294   1      2.8835814536787407      16.312000000000001      2.8835814536787407
   295   1      4.3253721805181113      18.351000000000003      4.3253721805181113
   296   1      1.4417907268393702      18.351000000000003      4.3253721805181113
   297   1      2.8835814536787412      16.312000000000001      5.7671629073574815
   298   1      4.3253721805181113      18.351000000000003      7.2089536341968516
   299   1  7.9323429861833427e-18      16.312000000000001      5.7671629073574815
   300   1      1.4417907268393706      18.351000000000003      7.2089536341968525
   301   1  1.0387240129099869e-16      16.312000000000001      8.6507443610362227
   302   1      2.8835814536787407      16.312000000000001      8.6507443610362227
   303   1      4.3253721805181105      18.351000000000003      10.092535087875593
   304   1      1.4417907268393702      18.351000000000003      10.092535087875593
   305   1      2.8835814536787403      16.312000000000001      11.534325814714963
   306   1      4.3253721805181113      18.351000000000003      12.976116541554335
   307   1  1.5864685972366685e-17      16.312000000000001      11.534325814714963
   308   1      1.4417907268393702      18.351000000000003      12.976116541554333
   309   1 -7.2143029346265319e-17      16.312000000000001      14.417907268393703
   310   1      2.8835814536787412      16.312000000000001      14.417907268393705
   311   1      4.3253721805181113      18.351000000000003      15.859697995233075
   312   1      1.4417907268393713      18.351000000000003      15.859697995233075
   313   1      2.8835814536787403      16.312000000000001      17.301488722072445
   314   1      4.3253721805181105      18.351000000000003      18.743279448911817
   315   1  2.0774480258199738e-16      16.312000000000001      17.301488722072445
   316   1      1.4417907268393704      18.351000000000003      18.743279448911817
   317   1 -1.6566197521368851e-15      16.312000000000001      20.185070175751189
   318   1      2.8835814536787403      16.312000000000001      20.185070175751186
   319   1      4.3253721805181113      18.351000000000003      21.626860902590558
   320   1      1.4417907268393684      18.351000000000003      21.626860902590558
   321   1      2.8835814536787416      16.312000000000001      23.068651629429926
   322   1      4.3253721805181105      18.351000000000003      24.510442356269294
   323   1  3.1729371944733371e-17      16.312000000000001      23.068651629429926
   324   1      1.4417907268393713      18.351000000000003      24.510442356269298
   325   1 -5.7656121582712916e-16      16.312000000000001       25.95223308310867
   326   1      2.8835814536787403      16.312000000000001      25.952233083108666
   327   1      4.3253721805181113      18.351000000000003      27.394023809948038
   328   1      1.4417907268393682      18.351000000000003      27.394023809948038
   329   1       2.883581453678743      16.312000000000001      28.835814536787407
   330   1      4.3253721805181122      18.351000000000003      30.277605263626775
   331   1 -1.4428605869253064e-16      16.312000000000001      28.835814536787407
   332   1      1.4417907268393713      18.351000000000003      30.277605263626779
   333   1 -7.5257664646439317e-16      16.312000000000001       31.71939599046615
   334   1      2.8835814536787399      16.312000000000001      31.719395990466147
   335   1      4.3253721805181113      18.351000000000003      33.161186717305519
   336   1      1.4417907268393682      18.351000000000003      33.161186717305519
   337   1      2.8835814536787421      16.312000000000001      34.602977444144891
   338   1      4.3253721805181105      18.351000000000003      36.044768170984263
   339   1  4.1548960516399476e-16      16.312000000000001      34.602977444144891
   340   1      1.4417907268393717      18.351000000000003      36.044768170984263
   341   1 -1.9280098260786777e-16      16.312000000000001      37.486558897823635
   342   1      2.8835814536787407      16.312000000000001      37.486558897823635
   343   1      4.3253721805181122      18.351000000000003      38.928349624662999
   344   1      1.4417907268393686      18.351000000000003      38.928349624663007
   345   1      2.8835814536787434      16.312000000000001      40.370140351502371
   346   1      4.3253721805181122      18.351000000000003      41.811931078341743
   347   1  2.3947417452673075e-16      16.312000000000001      40.370140351502371
   348   1      1.4417907268393715      18.351000000000003      41.811931078341743
   349   1 -3.6881641324513178e-16      16.312000000000001      43.253721805181115
   350   1      2.8835814536787403      16.312000000000001      43.253721805181115
   351   1      4.3253721805181113      18.351000000000003       44.69551253202048
   352   1      1.4417907268393684      18.351000000000003      44.695512532020487
   353   1      2.8835814536787434      16.312000000000001      46.137303258859852
   354   1      4.3253721805181149      18.351000000000003      47.579093985699224
   355   1  6.3458743889466742e-17      16.312000000000001      46.137303258859852
   356   1      1.4417907268393715      18.351000000000003      47.579093985699224
   357   1 -5.4483184388239579e-16      16.312000000000001      49.020884712538596
   358   1      2.8835814536787425      16.312000000000001      49.020884712538596
   359   1      4.3253721805181087      18.351000000000003      50.462675439377961