LAMMPS (10 Dec 2025)
OMP_NUM_THREADS environment is not set. Defaulting to 1 thread.
  using 1 OpenMP thread(s) per MPI task
Reading data file ...
  orthogonal box = (0 0 0) to (51.904466 48.936 51.904466)
  1 by 1 by 1 MPI processor grid
  reading atoms ...
  7776 atoms
  read_data CPU = 0.025 seconds
Changing box ...
  triclinic box = (0 0 0) to (51.904466 48.936 51.904466) with tilt (0 0 0)
Reading eam potential file /mnt/c/Users/iwash/Documents/Repositories/Simulation/potentials/Au_u3.eam with DATE: 2007-06-11
=== Phase 1: 0K Relaxation ===
Switching to 'neigh_modify every 1 delay 0 check yes' setting during minimization
Neighbor list info ...
  update: every = 1 steps, delay = 0 steps, check = yes
  max neighbors/atom: 2000, page size: 100000
  master list distance cutoff = 7.55
  ghost atom cutoff = 7.55
  binsize = 3.775, bins = 14 13 14
  1 neighbor lists, perpetual/occasional/extra = 1 0 0
  (1) pair eam, perpetual
      attributes: half, newton on
      pair build: half/bin/atomonly/newton/tri
      stencil: half/bin/3d/tri
      bin: standard
Setting up cg style minimization ...
  Unit style    : metal
  Current step  : 0
WARNING: Energy due to 3 extra global DOFs will be included in minimizer energies
 (src/min.cpp:222)
Per MPI rank memory allocation (min/avg/max) = 9.661 | 9.661 | 9.661 Mbytes
   Step          Temp          PotEng         Press           Pxx            Pyy            Pzz             Lx             Ly             Lz      
         0   0             -30559.531      2464.333       2464.333       2464.333       2464.333       51.904466      48.936         51.904466    
         2   0             -30559.68      -0.049243444   -0.049243444   -0.049243444   -0.049243444    51.929923      48.960001      51.929923    
Loop time of 0.0231706 on 1 procs for 2 steps with 7776 atoms

111.0% CPU use with 1 MPI tasks x 1 OpenMP threads

Minimization stats:
  Stopping criterion = energy tolerance
  Energy initial, next-to-last, final = 
     -30559.5309765964  -30559.6799998451  -30559.6800014651
  Force two-norm initial, final = 351.22675 0.0070252617
  Force max component initial, final = 202.78086 0.0040560367
  Final line search alpha, max atom move = 0.0015434944 6.2604701e-06
  Iterations, force evaluations = 2 4

MPI task timing breakdown:
Section |  min time  |  avg time  |  max time  |%varavg| %total
---------------------------------------------------------------
Pair    | 0.022081   | 0.022081   | 0.022081   |   0.0 | 95.30
Neigh   | 0          | 0          | 0          |   0.0 |  0.00
Comm    | 0.00011051 | 0.00011051 | 0.00011051 |   0.0 |  0.48
Output  | 0          | 0          | 0          |   0.0 |  0.00
Modify  | 0          | 0          | 0          |   0.0 |  0.00
Other   |            | 0.0009795  |            |       |  4.23

Nlocal:           7776 ave        7776 max        7776 min
Histogram: 1 0 0 0 0 0 0 0 0 0
Nghost:           9375 ave        9375 max        9375 min
Histogram: 1 0 0 0 0 0 0 0 0 0
Neighs:         334368 ave      334368 max      334368 min
Histogram: 1 0 0 0 0 0 0 0 0 0

Total # of neighbors = 334368
Ave neighs/atom = 43
Neighbor list builds = 0
Dangerous builds = 0
=== Phase 2: Equilibration at 300.0K ===
Setting up Verlet run ...
  Unit style    : metal
  Current step  : 0
  Time step     : 0.002
Per MPI rank memory allocation (min/avg/max) = 7.427 | 7.427 | 7.427 Mbytes
   Step          Temp          PotEng         Press           Pxx            Pyy            Pzz             Lx             Ly             Lz      
         0   300  unfix relax

print '=== Phase 2: Equilibration at 300.0K ==='
=== Phase 2: Equilibration at 300.0K ===
reset_timestep 0
velocity all create 300.0 15756 dist gaussian
fix eq all npt temp 300.0 300.0 0.1 tri 0.0 0.0 1.0
run 2500
Per MPI rank memory allocation (min/avg/max) = 7.427 | 7.427 | 7.427 Mbytes
   Step          Temp          PotEng         Press           Pxx            Pyy            Pzz             Lx             Ly             Lz      
         0   300           -30559.68       2439.0452      2435.3396      2405.9267      2475.8694      51.929923       
       400   302.43144     -30277.609      4533.5088      4666.1893      4584.867       4349.4701      52.044621      49.079433      52.058046    
       500   300.38495     -30231.487      231.61088      218.44216      240.80555      235.58494      52.12022       49.16258       52.12182     
       600   289.48899     -30236.349     -2373.9498     -2419.6782     -2402.8981     -2299.2731      52.149171      49.192932      52.135728    
       700   296.26722     -30254.298      652.54164      619.35783      585.52703      752.74007      52.104156      49.141358      52.106913    
       800   302.68101     -30248.77       146.9575       131.63115      145.91377      163.32758      52.112394      49.152343      52.113005    
       900   303.5656      -30242.309     -81.627765      111.99012     -191.99897     -164.87445      52.100724      49.168225      52.127247    
      1000   296.69255     -30248.508     -225.19307     -426.28191     -182.48748     -66.809825      52.123827      49.157128      52.107601    
      1100   300.34282     -30249.717      138.12611      262.17194      28.360505      123.84589      52.096009      49.183509      52.095488    
      1200   303.82586     -30249.294      55.227207      152.15966      175.86301     -162.34105      52.104194      49.146362      52.129343    
      1300   306.54575     -30250.587      308.37989     -203.4946       447.09894      681.53533      52.152311      49.127244      52.092733    
      1400   298.53073     -30247.19      -176.29248      853.29902     -333.90667     -1048.2698      52.016798      49.227471      52.140889    
      1500   301.23797     -30244.691      140.53737     -575.63844      14.525857      982.72468      52.120643      49.232976      52.026702    
      1600   296.05893     -30248.203     -176.63183     -28.802692      182.10555     -683.19835      52.138488      49.061887      52.192874    
      1700   299.36757     -30251.29       214.86508      275.98837      278.26043      90.346439      52.116153      49.127293      52.132121    
      1800   299.31606     -30245.351     -408.92114     -1004.7824     -871.40917      649.42817      52.105653      49.277043      52.011758    
      1900   306.67222     -30246.969      201.98671      1431.1475      165.49003     -990.67742      52.037594      49.152823      52.191948    
      2000   297.35965     -30255.901     -94.757216     -1038.9794      100.78247      653.9253       52.197101      49.083671      52.097764    
      2100   297.41869     -30251.639      408.21898      819.04859      454.58063     -48.972294      52.071107      49.166202      52.125306    
      2200   307.89387     -30241.909     -177.47807     -98.975398     -477.59307      44.134254      52.094221      49.220408      52.083771    
      2300   302.45515     -30247.95       8.0655704     -301.55219      82.102381      243.64652      52.148286      49.115397      52.123582    
      2400   293.8918      -30254.88       184.93596      313.03121      526.73001     -284.95333      52.10595       49.128326      52.133055    
      2500   303.01135     -30245.498     -174.98381     -37.761009     -662.80356      175.61314      52.073016      49.256783      52.05981     
Loop time of 13.1646 on 1 procs for 2500 steps with 7776 atoms

Performance: 32.815 ns/day, 0.731 hours/ns, 189.904 timesteps/s, 1.477 Matom-step/s
111.1% CPU use with 1 MPI tasks x 1 OpenMP threads

MPI task timing breakdown:
Section |  min time  |  avg time  |  max time  |%varavg| %total
-49.128326      52.133055    
      2500   303.01135     -30245.498     -174.98381     -37.761009     -662.80356      175.61314      52.073016      49.256783      52.05981     
Loop time of 13.1646 on 1 procs for 2500 steps with 7776 atoms

Performance: 32.815 ns/day, 0.731 hours/ns, 189.904 timesteps/s, 1.477 Matom-step/s
111.1% CPU use with 1 MPI tasks x 1 OpenMP threads

MPI task timing breakdown:
Section |  min time  |  avg time  |  max time  |%varavg| %total
---------------------------------------------------------------
Pair    | 12.578     | 12.578      9371 max        9371 min
Histogram: 1 0 0 0 0 0 0 0 0 0
Neighs:         372112 ave      372112 max      372112 min
Histogram: 1 0 0 0 0 0 0 0 0 0

Total # of neighbors = 372112
Ave neighs/atom = 47.853909
Neighbor list builds = 2
Dangerous builds = 0
=== Phase 3: Tension ===
Neighbor list info ...
  update: every = 1 steps, delay = 10 steps, check = yes
  max neighbors/atom: 2000, page size: 100000
  master list distance cutoff = 7.55
  ghost atom cutoff = 7.55
  binsize = 3.775, bins = 14 14 14
  3 neighbor lists, perpetual/occasional/extra = 1 2 0
  (1) pair eam, perpetual
      attributes: half, newton on
      pair build: half/bin/atomonly/newton/tri
      stencil: half/bin/3d/tri
      bin: standard
  (2) compute cna/atom, occasional
      attributes: full, newton on
      pair build: full/bin/atomonly
      stencil: full/bin/3d
      bin: standard
  (3) compute centro/atom, occasional
      attributes: full, newton on
      pair build: full/bin/atomonly
      stencil: full/bin/3d
      bin: standard
Setting up Verlet run ...
  Unit style    : metal
  Current step  : 0
  Time step     : 0.002
Per MPI rank memory allocation (min/avg/max) = 10.94 | 10.94 | 10.94 Mbytes
   Step          Temp         v_strain       v_stress    v_stress_drop  v_drop_from_peak      Pxx            Pyy            Pzz             Lx             Ly             Lz      
         0   303.01135      8.1891509e-16 -0.017561314    1.3877788e-17  0.017561314   -37.761009     -662.80356      175.61314      52.073016      49.256783      52.05981     
       100   295.93174      0.0001        -0.097634248    0.040036467    0.097634248   -271.79362      73.555329      976.34248      52.129651      49.180205      52.065016    
       200   299.12876      0.0002        -0.024439464   -0.022105544    0.024439464    0.96512127    -176.61786      244.39464      52.089135      49.221992      52.070222    
       300   303.31816      0.0003        -0.015816527   -0.023046361    0.015816527    27.883484     -67.633065      158.16527      52.091354      49.222975      52.075428    
       400   301.67086      0.0004        -0.097618504    0.047004492    0.097618504   -16.962204      513.85482      976.18504      52.142043      49.152285      52.080634    
       500   297.17481      0.0005        -0.048228023   -0.0019883239   0.048228023    1128.062       112.62539      482.28023      52.034407      49.244148      52.08584     
       600   299.15394      0.0006        -0.016370481   -0.029010742    0.016370481   -994.69089     -298.82909      163.70481      52.152025      49.149063      52.091046    
       700   303.42543      0.0007         0.057823098   -0.090303781    0             -914.52322     -801.00352     -578.23098      52.12025       49.195987      52.096252    
       800   296.44709      0.0008        -0.027464596   -0.0044587437   0.085287694    661.77499      121.94766      274.64596      52.082748      49.1942        52.101458    
       900   293.52207      0.0009        -0.10871766     0.069114886    0.16654076    -160.29998      711.859        1087.1766      52.184731      49.078431      52.106664    
      1000   300.15211      0.001          0.040248937   -0.074070683    0.017574161    269.03707     -696.34851     -402.48937      52.064212      49.210538      52.11187     
      1100   301.74901      0.0011        -0.043762472    0.015327903    0.10158557     121.26968      422.36633      437.62472      52.140076      49.12612       52.117076    
      1200   303.34685      0.0012         0.01737198    -0.041625404    0.040451118   -162.61904     -300.1942      -173.7198       52.122898      49.143275      52.122282    
      1300   300.00515      0.0013         0.02740939    -0.047340223    0.030413708    106.66388      28.625084     -274.0939       52.103546      49.150074      52.127488    
      1400   296.82723      0.0014        -0.028264186    0.015268784    0.086087283    557.54294      189.45419      282.64186      52.125367      49.122265      52.132694    
      1500   297.11471      0.0015         0.033516695   -0.038337624    0.024306403   -267.44572      60.360605     -335.16695      52.13813       49.123265      52.1379      
      1600   295.84712      0.0016         0.20021549    -0.18337783     0             -1142.382      -1701.9871     -2002.1549      52.091866      49.198864      52.143106    
      1700   297.21648      0.0017         0.067956516   -0.050105506    0.13225898    -1806.8483     -792.98826     -679.56516      52.204426      49.064905      52.148312    
      1800   304.33704      0.0018         0.0029053316   0.017982671    0.19731016     1376.5607      715.32688     -29.053316      52.057584      49.156683      52.153518    
      1900   303.14778      0.0019        -0.089798179    0.11257813     0.29001367     1914.5231      1704.2213      897.98179      52.068014      49.10825       52.158724    
      2000   300.83738      0.002         -0.031422403    0.04703522     0.2316379      961.83495      893.94687      314.22403      52.116209      49.078249      52.16393     
      2100   301.26738      0.0021         0.11607485    -0.084478298    0.084140648    10.511975     -294.53203     -1160.7485      52.09761       49.132279      52.169135    
      2200   300.45142      0.0022         0.17548237    -0.12807478     0.024733122   -1506.1027     -1211.8008     -1754.8237      52.157645      49.113063      52.174341    
      2300   298.75146      0.0023         0.19844762    -0.13393621     0.0017678719  -1048.3672     -1152.8384     -1984.4762      52.120078      49.13817       52.179547    
      2400   299.82783      0.0024         0.020406387    0.048972081    0.17980911     1152.3114      1114.5295     -204.06387      52.096968      49.081662      52.184753    
      2500   295.99505      0.0025        -0.053890844    0.11452856     0.25410634     1663.8048      1678.6343      538.90844      52.10303       49.058521      52.189959    
      2600   306.66443      0.0026         0.18446928    -0.12540619     0.015746211   -811.73881     -846.53859     -1844.6928      52.116955      49.113615      52.195165    
      2700   296.53721      0.0027         0.25782395    -0.17977411     0             -1696.3229     -1454.2973     -2578.2395      52.147279      49.103009      52.200371    
      2800   299.64028      0.0028         0.16506893    -0.070802735    0.092755017   -400.06492     -503.97548     -1650.6893      52.134557      49.080333      52.205577    
      2900   296.2897       0.0029         0.067242667    0.042727614    0.19058128     643.02267      733.83273     -672.42667      52.123471      49.042739      52.210783    
      3000   304.02681      0.003          0.049095732    0.068926363    0.20872822     1240.035       937.72061     -490.95732      52.10433       49.049688      52.215989    
      3100   304.11558      0.0031         0.047912092    0.063293727    0.20991186     993.67781      951.02583     -479.12092      52.120209      49.03624       52.221195    
      3200   299.45562      0.0032         0.24062503    -0.12290495     0.017198917   -833.63083     -973.51771     -2406.2503      52.117617      49.082198      52.226401    
      3300   302.87601      0.0033         0.23840237    -0.11668681     0.019421579   -1298.073      -782.2894      -2384.0237      52.174643      49.033597      52.231607    
      3400   298.83149      0.0034         0.10137443     0.028437931    0.15644951     722.63727      876.93902     -1013.7443      52.125983      49.028923      52.236813    
      3500   305.53907      0.0035         0.12240769     0.025034532    0.13541626     1170.2979      787.27148     -1224.0769      52.093347      49.058646      52.242019    
      3600   303.36934      0.0036         0.19442528    -0.045987464    0.063398667   -109.03761     -139.922       -1944.2528      52.133576      49.033887      52.247225    
      3700   299.61176      0.0037         0.21327932    -0.069295965    0.044544629   -335.74258     -464.06807     -2132.7932      52.126108      49.043147      52.252431    
      3800   300.01148      0.0038         0.18746626    -0.041243176    0.070357686    57.181435      202.14068     -1874.6626      52.134569      49.026924      52.257637    
      3900   302.3524       0.0039         0.17722347    -0.020002305    0.080600476    312.45743      258.42038     -1772.2347      52.1317        49.02313       52.262843    
      4000   301.4359       0.004          0.22531707    -0.050473764    0.032506883    123.20139     -90.757654     -2253.1707      52.119007      49.029962      52.268049    
      4100   297.6209       0.0041         0.23696981    -0.043220739    0.020854136   -210.72241     -171.32064     -2369.6981      52.145257      49.003458      52.273255    
      4200   302.99311      0.0042         0.22166551    -0.029812385    0.036158443   -332.37706     -217.99436     -2216.6551      52.163798      48.993846      52.278461    
      4300   302.80725      0.0043         0.2465555     -0.053887062    0.011268453    39.92782      -225.15607     -2465.555       52.118588      49.025447      52.283667    
      4400   299.82388      0.0044         0.19178876     0.0099211017   0.066035184    728.01265      530.93002     -1917.8876      52.122124      48.991358      52.288873    
      4500   299.11841      0.0045         0.17500442     0.031965122    0.082819531    390.82443      472.64108     -1750.0442      52.170637      48.944597      52.294079    
      4600   303.32494      0.0046         0.31812825    -0.09878841     0             -1056.415      -1098.621      -3181.2825      52.162016      49.001716      52.299285    
      4700   300.6971       0.0047         0.31181913    -0.082625314    0.0063091147  -867.97773     -1033.5903     -3118.1913      52.150982      48.991837      52.304491    
      4800   300.4611       0.0048         0.14180275     0.082824719    0.1763255      721.12646      1081.2592     -1418.0275      52.156927      48.930626      52.309697    
      4900   293.55996      0.0049         0.18762798     0.038039932    0.13050026     1316.7116      1035.8646     -1876.2798      52.087734      48.997396      52.314903    
      5000   296.74508      0.005          0.33658656    -0.09979169     0             -861.34984     -812.69375     -3365.8656      52.164353      48.967632      52.320109    
      5100   299.59906      0.0051         0.35168688    -0.1034203      0             -1455.6348     -992.80856     -3516.8688      52.185361      48.954366      52.325315    
      5200   298.34198      0.0052         0.34493716    -0.084343419    0.0067497188  -246.68347     -713.59193     -3449.3716      52.127796      48.993004      52.330521    
      5300   302.81931      0.0053         0.19970362     0.056204926    0.15198325     520.07906      950.92476     -1997.0362      52.177023      48.901002      52.335727    
      5400   299.50089      0.0054         0.19714846     0.059296061    0.15453842     1602.4074      1050.6032     -1971.4846      52.102443      48.951699      52.340933    
      5500   301.62099      0.0055         0.3183606     -0.047580457    0.033326281   -268.81999     -271.38826     -3183.606       52.163712      48.932354      52.346139    
      5600   304.31928      0.0056         0.38653174    -0.10891126     0             -1449.0181     -1063.9965     -3865.3174      52.192832      48.934814      52.351345    
      5700   298.70026      0.0057         0.35670546    -0.074596338    0.029826285   -29.070274     -435.6095      -3567.0546      52.112062      48.976277      52.356551    
      5800   296.44476      0.0058         0.21919904     0.070649709    0.1673327      828.73806      974.81133     -2191.9904      52.167995      48.879688      52.361757    
      5900   302.89774      0.0059         0.25647803     0.04025572     0.13005371     804.12623      937.34878     -2564.7803      52.153118      48.897174      52.366963    
      6000   302.02305      0.006          0.405317      -0.1017102      0             -154.94457     -711.33479     -4053.17        52.120532      48.960255      52.372169    
      6100   297.56571      0.0061         0.36649514    -0.061407516    0.038821857   -1755.9736     -618.43729     -3664.9514      52.246111      48.849449      52.377375    
      6200   296.5546       0.0062         0.42912605    -0.11561953     0             -417.1298      -1046.6344     -4291.2605      52.119546      48.958744      52.382581    
      6300   300.64956      0.0063         0.29194471     0.030785915    0.13718134     274.09833      526.44994     -2919.4471      52.164766      48.881052      52.387787    
      6400   299.66751      0.0064         0.265057       0.06446448     0.16406905     772.66993      949.30745     -2650.57        52.166821      48.860128      52.392993    
      6500   299.85025      0.0065         0.42229482    -0.082379922    0.0068312247   640.44827     -49.007226     -4222.9482      52.103271      48.933089      52.398199    
      6600   301.96053      0.0066         0.34940039    -0.01319863     0.079725652   -656.21128     -107.70259     -3494.0039      52.213321      48.844915      52.403405    
      6700   299.75354      0.0067         0.43308996    -0.089249749    0             -323.80706     -286.65171     -4330.8996      52.165455      48.890899      52.408611    
      6800   300.90495      0.0068         0.49048619    -0.11951726     0             -277.50525     -798.2125      -4904.8619      52.12888       48.923897      52.413817    
      6900   304.09188      0.0069         0.35826542     0.022882245    0.13222077    -324.21302      118.79178     -3582.6542      52.20843       48.822145      52.419023    
      7000   303.32418      0.007          0.36790382     0.0095025281   0.12258237     1008.1599      550.62297     -3679.0382      52.116791      48.890463      52.424229    
      7100   298.81707      0.0071         0.37819146     0.00038451744  0.11229472     809.3979       722.34116     -3781.9146      52.133856      48.865763      52.429435    
      7200   299.45703      0.0072         0.40863671    -0.03210966     0.08184948    -461.78834      36.880684     -4086.3671      52.197547      48.820001      52.434641    
      7300   303.52872      0.0073         0.53743635    -0.13636014     0             -778.27398     -1130.4706     -5374.3635      52.154109      48.888928      52.439846    
      7400   304.42188      0.0074         0.38824712     0.025148107    0.14918923    -35.70605       180.96466     -3882.4712      52.174585      48.83369       52.445052    
      7500   298.99099      0.0075         0.3192413      0.083848575    0.21819505     1443.8709      1275.7397     -3192.413       52.143556      48.819537      52.450258    
      7600   300.95215      0.0076         0.3911662      0.016100255    0.14627015     486.49427      504.97559     -3911.662       52.162337      48.813167      52.455464    
      7700   299.09102      0.0077         0.46672329    -0.056093504    0.070713059   -554.85949     -354.9099      -4667.2329      52.185532      48.832394      52.46067     
      7800   299.06831      0.0078         0.54237553    -0.12655681     0             -804.4183      -1101.4468     -5423.7553      52.168564      48.859014      52.465876    
      7900   302.18851      0.0079         0.49254632    -0.063299511    0.049829212   -1022.7227     -264.23909     -4925.4632      52.225923      48.77643       52.471082    
      8000   299.95796      0.008          0.40697916     0.026175187    0.13539638     856.17334      452.48808     -4069.7916      52.140824      48.822067      52.476288    
      8100   301.30957      0.0081         0.35605265     0.074887808    0.18632288     1051.6743      1118.1519     -3560.5265      52.176434      48.771768      52.481494    
      8200   302.25185      0.0082         0.42364681     0.0087946646   0.11872873     60.414037      283.40419     -4236.4681      52.204757      48.769371      52.4867      
      8300   296.75662      0.0083         0.52848472    -0.096938411    0.013890812   -634.34818     -854.51302     -5284.8472      52.184635      48.806994      52.491906    
      8400   300.64354      0.0084         0.46313778    -0.024102405    0.079237752   -457.6873      -88.851486     -4631.3778      52.201565      48.775626      52.497112    
      8500   304.0259       0.0085         0.44177582     0.0095130123   0.10059972     645.00841      321.87846     -4417.7582      52.162552      48.799019      52.502318    
      8600   300.68052      0.0086         0.41069635     0.042545496    0.13167919     565.23696      772.72309     -4106.9635      52.197192      48.740417      52.507524    
      8700   300.10631      0.0087         0.52013322    -0.061550381    0.022242317   -346.79138     -328.29071     -5201.3322      52.193006      48.769666      52.51273     
      8800   302.03002      0.0088         0.59749107    -0.13339668     0             -819.05426     -1217.2252     -5974.9107      52.185182      48.806167      52.517936    
      8900   301.85673      0.0089         0.45405518     0.0061900924   0.14343589    -632.33391      132.54699     -4540.5518      52.257758      48.700481      52.523142    
      9000   303.0155       0.009          0.49054381    -0.021942071    0.10694726     890.51854      281.79683     -4905.4381      52.149274      48.777086      52.528348    
      9100   297.60022      0.0091         0.44537395     0.032159917    0.15211712     1214.791       855.30944     -4453.7395      52.156855      48.748175      52.533554    
      9200   297.22462      0.0092         0.44448876     0.035129307    0.15300231    -184.5201       428.62017     -4444.8876      52.254638      48.67444       52.53876     
      9300   301.1484       0.0093         0.64493762    -0.15367426     0             -943.91279     -1353.5797     -6449.3762      52.185145      48.792353      52.543966    
      9400   299.29587      0.0094         0.59929247    -0.094413649    0.045645142   -1332.796      -1071.1778     -5992.9247      52.227404      48.732043      52.549172    
      9500   296.91416      0.0095         0.48356168     0.025495733    0.16137594     278.16094      305.02862     -4835.6168      52.209004      48.700361      52.554378    
      9600   305.5078       0.0096         0.47542129     0.040108616    0.16951633     1589.6861      695.98946     -4754.2129      52.134396      48.753753      52.559584    
      9700   300.61416      0.0097         0.4672605      0.042982134    0.17767712     517.57014      864.12442     -4672.605       52.207628      48.684352      52.56479     
      9800   301.36887      0.0098         0.61722476    -0.10500876     0.027712854   -516.21692     -728.89141     -6172.2476      52.19779       48.727511      52.569996    
      9900   300.01942      0.0099         0.59279632    -0.0667062      0.0521413     -788.00597     -648.94432     -5927.9632      52.210863      48.725152      52.575202    
     10000   300.26479      0.01           0.52073394     0.008375187    0.12420367     21.977218      310.60001     -5207.3394      52.219798      48.689637      52.580408    
     10100   300.3542       0.0101         0.5631427     -0.022256694    0.081794919    226.43602      196.6798      -5631.427       52.203601      48.689776      52.585614    
     10200   298.67512      0.0102         0.60416341    -0.047309945    0.040774202   -335.47633     -206.35298     -6041.6341      52.204286      48.694948      52.59082     
     10300   300.92862      0.0103         0.61712402    -0.063051906    0.027813601   -510.22371     -687.45575     -6171.2402      52.214582      48.700714      52.596026    
     10400   300.52977      0.0104         0.55327119    -0.0038012049   0.091666431   -239.2708       86.438845     -5532.7119      52.250269      48.641436      52.601232    
     10500   297.41084      0.0105         0.57730302    -0.01845891     0.067634592    431.95673      316.73521     -5773.0302      52.181111      48.690093      52.606438    
     10600   298.12024      0.0106         0.58786649    -0.01777786     0.057071121    477.89773      19.611987     -5878.6649      52.173763      48.699762      52.611644    
     10700   301.21607      0.0107         0.57187104     0.0086786465   0.073066573   -599.29611      40.811658     -5718.7104      52.267325      48.622312      52.61685     
     10800   300.61292      0.0108         0.65710619    -0.072568359    0             -373.44447     -598.05158     -6571.0619      52.206786      48.670085      52.622056    
     10900   300.87853      0.0109         0.63503179    -0.046270406    0.022074406   -573.36892     -395.08403     -6350.3179      52.228623      48.64867       52.627262    
     11000   300.38232      0.011          0.59544759     0.00078515727  0.061658605   -2.1599211      69.634988     -5954.4759      52.230814      48.63017       52.632468    
     11100   297.4248       0.0111         0.53743415     0.056227738    0.11967204     1107.5696      704.95814     -5374.3415      52.201421      48.628165      52.637674    
     11200   299.98661      0.0112         0.51673265     0.068186165    0.14037354     503.9547       925.1722      -5167.3265      52.252548      48.572177      52.64288     
     11300   301.83386      0.0113         0.67550362    -0.084746848    0             -630.58859     -974.78231     -6755.0362      52.206616      48.667901      52.648086    
     11400   302.76131      0.0114         0.71048486    -0.10400672     0             -845.16051     -954.45852     -7104.8486      52.230719      48.639957      52.653292    
     11500   297.88693      0.0115         0.56725691     0.038216619    0.14322795     96.291251      501.92087     -5672.5691      52.265419      48.567233      52.658498    
     11600   299.17969      0.0116         0.67552905    -0.061289268    0.034955809    406.09667     -354.79518     -6755.2905      52.171293      48.668849      52.663704    
     11700   304.11205      0.0117         0.6713968     -0.047204435    0.039088066   -1160.3813     -540.53089     -6713.968       52.273244      48.58448       52.66891     
     11800   295.46112      0.0118         0.57195598     0.043721356    0.13852888     312.20273      524.95494     -5719.5598      52.238914      48.575199      52.674116    
     11900   296.34235      0.0119         0.64541577    -0.02870003     0.065069094    1236.0715      195.23778     -6454.1577      52.139615      48.666344      52.679322    
     12000   303.68138      0.012          0.61797891     0.00098995642  0.092505948   -1060.6539      74.134161     -6179.7891      52.318725      48.515337      52.684528    
     12100   302.76315      0.0121         0.66886307    -0.036751309    0.04162179     319.52643     -106.60351     -6688.6307      52.215353      48.60323       52.689734    
     12200   297.89834      0.0122         0.63629133     0.007776298    0.074193528    959.44425      368.24173     -6362.9133      52.183219      48.609434      52.69494     
     12300   297.18698      0.0123         0.69522745    -0.049187432    0.015257416   -1586.7171     -460.56179     -6952.2745      52.312364      48.516235      52.700146    
     12400   304.32473      0.0124         0.75023588    -0.10022076     0              422.91061     -525.04567     -7502.3588      52.146798      48.65338       52.705352    
     12500   300.84431      0.0125         0.5504041      0.097925737    0.19983178     1437.0671      1385.526      -5504.041       52.23307       48.52303       52.710558    
     12600   300.90097      0.0126         0.65785452    -0.011292142    0.092381356   -218.18349      338.1961      -6578.5452      52.26486       48.533532      52.715763    
     12700   297.53583      0.0127         0.82781567    -0.1656114      0             -486.69215     -1391.9643     -8278.1567      52.177474      48.645721      52.720969    
     12800   297.50084      0.0128         0.68224786    -0.0090144069   0.14556781    -662.87012      169.88421     -6822.4786      52.292127      48.500621      52.726175    
     12900   294.61247      0.0129         0.7018576     -0.022979958    0.12595807     90.484322     -133.12504     -7018.576       52.242237      48.540787      52.731381    
     13000   303.45675      0.013          0.74446713    -0.052940665    0.083348543   -379.06905     -481.06909     -7444.6713      52.229222      48.561331      52.736587    
     13100   297.09669      0.0131         0.72285343    -0.025927938    0.10496223     49.220009      57.221383     -7228.5343      52.232179      48.541049      52.741793    
     13200   302.01375      0.0132         0.69038146     0.011953052    0.13743421     572.68225      384.73449     -6903.8146      52.231932      48.533589      52.746999    
     13300   301.36337      0.0133         0.72789691    -0.022295453    0.099918761   -49.312964      13.121989     -7278.9691      52.242562      48.52809       52.752205    
     13400   301.85552      0.0134         0.79183564    -0.082074207    0.03598003    -474.36643     -734.52521     -7918.3564      52.225241      48.551283      52.757411    
     13500   302.38991      0.0135         0.70078454     0.024014939    0.12703113     372.3017       302.82016     -7007.8454      52.23994       48.504939      52.762617    
     13600   299.84702      0.0136         0.66599704     0.059616682    0.16181862     915.7358       1045.5894     -6659.9704      52.233937      48.488453      52.767823    
     13700   304.81215      0.0137         0.7891799     -0.06742975     0.038635768    240.52272     -144.59008     -7891.799       52.207638      48.53599       52.773029    
     13800   302.00184      0.0138         0.68689453     0.035320291    0.14092114     231.85701      664.26347     -6868.9453      52.269901      48.470274      52.778235    
     13900   304.72709      0.0139         0.74981859    -0.022807673    0.07799708     30.87028       16.515305     -7498.1859      52.243606      48.502725      52.783441    
     14000   300.22283      0.014          0.85013504    -0.11255733     0             -800.91639     -704.51164     -8501.3504      52.24741       48.509376      52.788647    
     14100   299.26505      0.0141         0.74896787    -0.0087787148   0.10116718    -431.11375     -111.94749     -7489.6787      52.266004      48.469744      52.793853    
     14200   300.64687      0.0142         0.74872263    -0.0026993636   0.10141241     687.54177      336.55846     -7487.2263      52.214489      48.502143      52.799059    
     14300   299.82886      0.0143         0.72513968     0.020607867    0.12499536     904.28046      616.45677     -7251.3968      52.232379      48.47085       52.804265    
     14400   297.40491      0.0144         0.81541403    -0.067308644    0.034721013   -326.67159     -122.47626     -8154.1403      52.263511      48.449381      52.809471    
     14500   297.4225       0.0145         0.82857971    -0.067694807    0.021555333   -87.287958     -227.14829     -8285.7971      52.230081      48.484144      52.814677    
     14600   298.02658      0.0146         0.74525596     0.023554836    0.10487908     426.83901      553.00587     -7452.5596      52.257499      48.444123      52.819883    
     14700   302.36176      0.0147         0.82337034    -0.051140507    0.026764697   -537.88492     -359.54389     -8233.7034      52.265605      48.459684      52.825089    
     14800   301.7383       0.0148         0.91792121    -0.1225887      0             -838.16457     -1352.5092     -9179.2121      52.227682      48.498945      52.830295    
     14900   297.67019      0.0149         0.71062849     0.080785008    0.20729272     467.42479      970.84914     -7106.2849      52.298571      48.383228      52.835501    
     15000   297.6195       0.015          0.73892489     0.041367593    0.17899632     1084.6994      992.81445     -7389.2489      52.261918      48.408459      52.840707    
     15100   300.40522      0.0151         0.88032606    -0.08689776     0.03759515     79.140228     -175.443       -8803.2606      52.218052      48.478793      52.845913    
     15200   297.72862      0.0152         0.88784753    -0.080506738    0.030073683   -1314.0637     -988.97618     -8878.4753      52.313398      48.40484       52.851119    
     15300   299.55622      0.0153         0.8985681     -0.073884471    0.019353108   -1330.0287     -831.86356     -8985.681       52.31485       48.402783      52.856325    
     15400   306.77939      0.0154         0.87770571    -0.046792914    0.040215496    608.62688     -171.12796     -8777.0571      52.200897      48.478449      52.861531    
     15500   299.00625      0.0155         0.7130875      0.10627608     0.20483371     669.61076      1212.475      -7130.875       52.293108      48.355605      52.866737    
     15600   300.58121      0.0156         0.84203715    -0.012995452    0.075884059    216.69557      99.654062     -8420.3715      52.253726      48.408666      52.871943    
     15700   297.11037      0.0157         0.85412288    -0.022005925    0.063798333    127.19703     -207.1655      -8541.2288      52.252476      48.411244      52.877149    
     15800   300.51726      0.0158         0.82721187    -0.0041658488   0.090709344   -414.62366      239.99834     -8272.1187      52.311121      48.357136      52.882355    
     15900   299.00282      0.0159         0.91181187    -0.068647511    0.006109344    77.296442     -439.93883     -9118.1187      52.236738      48.424798      52.887561    
     16000   295.55704      0.016          0.87694501    -0.01997864     0.040976203   -461.77981     -192.39082     -8769.4501      52.285987      48.372268      52.892767    
     16100   304.36411      0.0161         0.89958588    -0.040693536    0.018335325   -495.85042     -388.98991     -8995.8588      52.276087      48.386163      52.897973    
     16200   301.96472      0.0162         0.79633392     0.053407064    0.12158728     1539.2737      922.96463     -7963.3392      52.219165      48.387823      52.903179    
     16300   299.5093       0.0163         0.71757201     0.11406937     0.20034919     1519.2799      2035.7977     -7175.7201      52.29095       48.295688      52.908385    
     16400   303.24831      0.0164         0.97986203    -0.13800502     0             -334.94405     -860.99448     -9798.6203      52.243594      48.419663      52.913591    
     16500   303.85122      0.0165         1.0080878     -0.13673073     0             -1874.9165     -1354.5292     -10080.878      52.302506      48.377697      52.918797    
     16600   295.90224      0.0166         0.864439       0.0091582268   0.14364877    -224.06167      185.52034     -8644.39        52.300194      48.328779      52.924003    
     16700   301.89063      0.0167         0.88314694    -0.0066473108   0.12494082     1139.9407      504.95703     -8831.4694      52.217375      48.391227      52.929209    
     16800   306.23827      0.0168         0.85915371     0.020540104    0.14893405     504.25691      808.41401     -8591.5371      52.293326      48.308937      52.934415    
     16900   297.68537      0.0169         0.88257418    -0.0058041379   0.12551358     412.25966      553.46103     -8825.7418      52.283063      48.31991       52.939621    
     17000   301.41561      0.017          1.0084457     -0.11852556     0             -258.1295      -975.56493     -10084.457      52.237341      48.402907      52.944827    
     17100   300.71267      0.0171         0.98167136    -0.083542698    0.026774315   -1906.7921     -1007.8819     -9816.7136      52.363273      48.285594      52.950033    
     17200   298.75237      0.0172         0.95736345    -0.043131838    0.051082223    195.95112     -108.42163     -9573.6345      52.257755      48.336972      52.955239    
     17300   299.06189      0.0173         0.8242408      0.10065769     0.18420487     2074.4427      1531.3605     -8242.408       52.220992      48.329383      52.960445    
     17400   308.64855      0.0174         0.86709115     0.046530248    0.14135452     134.71682      789.25875     -8670.9115      52.330382      48.250561      52.965651    
     17500   300.65381      0.0175         1.0103051     -0.096461983    0              287.28945     -545.59365     -10103.051      52.234684      48.363325      52.970857    
     17600   305.71955      0.0176         0.91696066     0.0021346475   0.093344464    124.5027       80.633474     -9169.6066      52.312633      48.280778      52.976063    
     17700   300.55146      0.0177         0.94037497    -0.015556863    0.069930151   -456.63561     -140.66233     -9403.7497      52.328923      48.270121      52.981269    
     17800   302.38122      0.0178         1.0148323     -0.074446315    0             -128.03991     -482.00031     -10148.323      52.253561      48.331645      52.986474    
     17900   298.01266      0.0179         0.87310743     0.066331856    0.14172485     447.58476      777.78919     -8731.0743      52.314575      48.246209      52.99168     
     18000   299.52859      0.018          0.93767489    -0.0053126769   0.077157391    257.76888      271.78728     -9376.7489      52.292395      48.281462      52.996886    
     18100   299.60203      0.0181         1.0359422     -0.098152914    0             -456.55388     -963.52295     -10359.422      52.261987      48.325789      53.002092    
     18200   298.8597       0.0182         0.94770185    -0.01087871     0.088240364   -431.19537      62.073949     -9477.0185      52.335516      48.234684      53.007298    
     18300   305.90382      0.0183         0.9722909     -0.020662754    0.063651311    570.09338      255.19936     -9722.909       52.27358       48.287353      53.012504    
     18400   302.69889      0.0184         0.99553694    -0.031064214    0.040405272    288.80992      64.327411     -9955.3694      52.274836      48.287378      53.01771     
     18500   301.15482      0.0185         0.96053567    -0.0010398931   0.075406538   -199.29968      159.08836     -9605.3567      52.331182      48.223075      53.022916    
     18600   298.31715      0.0186         0.98688337    -0.02039532     0.04905884     155.20772     -40.904069     -9868.8337      52.283234      48.26003       53.028122    
     18700   302.37792      0.0187         0.97668996    -0.0065704061   0.059252255    53.472953      34.124504     -9766.8996      52.311733      48.235988      53.033328    
     18800   298.4583       0.0188         1.0117995     -0.041983195    0.024142748   -167.91493     -158.1531      -10117.995      52.313764      48.234534      53.038534    
     18900   295.77576      0.0189         1.0704204     -0.080872855    0             -157.8384      -665.73312     -10704.204      52.270652      48.272525      53.04374     
     19000   298.03643      0.019          0.96088753     0.030981304    0.1095329      77.744181      383.11032     -9608.8753      52.326163      48.19731       53.048946    
     19100   303.04576      0.0191         0.99502967    -0.007252093    0.075390753    409.04287      147.97873     -9950.2967      52.297545      48.225446      53.054152    
     19200   296.46458      0.0192         1.026424      -0.030774191    0.043996441   -173.5141      -152.19817     -10264.24       52.316624      48.211262      53.059358    
     19300   296.39536      0.0193         1.0179598     -0.017743156    0.052460583   -389.94212     -133.43433     -10179.598      52.329926      48.199209      53.064564    
     19400   306.31493      0.0194         1.0930916     -0.083119426    0             -609.89438     -664.7017      -10930.916      52.32755       48.217775      53.06977     
     19500   303.76139      0.0195         0.98733082     0.025320847    0.10576076     256.21435      309.72195     -9873.3082      52.326055      48.181435      53.074976    
     19600   295.41315      0.0196         0.98185661     0.030292378    0.11123497     708.63534      581.17773     -9818.5661      52.300158      48.191494      53.080182    
     19700   298.68038      0.0197         1.0924579     -0.068732155    0.0006336345  -639.71114     -623.16344     -10924.579      52.32831       48.198108      53.085388    
     19800   301.66749      0.0198         1.1465079     -0.10931125     0             -1640.678      -1025.1912     -11465.079      52.360484      48.185725      53.090594    
     19900   299.40775      0.0199         1.0733168     -0.035830557    0.073191051    1075.2236      180.98403     -10733.168      52.251506      48.222731      53.0958      
     20000   300.49245      0.02           0.89608927     0.13491717     0.25041861     1408.0183      1677.9781     -8960.8927      52.337119      48.108701      53.101006    
     20100   302.13495      0.0201         1.0839601     -0.044060586    0.062547809   -101.50066     -179.68167     -10839.601      52.314593      48.178802      53.106212    
     20200   298.31967      0.0202         1.1876462     -0.13162453     0             -926.30929     -1359.3711     -11876.462      52.28681       48.232481      53.111418    
     20300   298.66843      0.0203         1.0640732     -0.0034401781   0.12357301    -600.34841      102.26156     -10640.732      52.372363      48.115124      53.116624    
     20400   299.97143      0.0204         1.0958236     -0.034917393    0.091822591    158.99307     -77.246683     -10958.236      52.311009      48.161176      53.12183     
     20500   301.63248      0.0205         1.0728827     -0.0034212635   0.11476353     228.60861      149.33146     -10728.827      52.32593       48.142717      53.127036    
     20600   304.15434      0.0206         1.0019435      0.069526626    0.18570273     717.61836      1032.442      -10019.435      52.349582      48.092212      53.132242    
     20700   297.22951      0.0207         1.0184206      0.045645805    0.16922565     1290.4946      714.36205     -10184.206      52.289138      48.143         53.137448    
     20800   302.56081      0.0208         1.1545813     -0.089707553    0.033064948   -1277.9963     -854.24182     -11545.813      52.366895      48.123378      53.142654    
     20900   295.59629      0.0209         1.2366892     -0.15547821     0             -1542.0073     -1626.4044     -12366.892      52.335241      48.163225      53.14786     
     21000   297.49623      0.021          1.1083776     -0.005937817    0.12831156     102.54994      64.943525     -11083.776      52.314875      48.142203      53.153066    
     21100   298.61779      0.0211         1.0681047      0.0327496      0.16858452     476.89328      498.77405     -10681.047      52.328163      48.111813      53.158272    
     21200   298.20862      0.0212         1.1231273     -0.028724949    0.11356186    -34.233379      19.30162      -11231.273      52.330329      48.110361      53.163478    
     21300   298.78739      0.0213         1.1372808     -0.035557675    0.099408376   -268.63188      51.638493     -11372.808      52.334762      48.109599      53.168684    
     21400   302.44137      0.0214         1.1375222     -0.03162922     0.099166974    316.97988      84.822603     -11375.222      52.306442      48.129599      53.17389     
     21500   298.8186       0.0215         1.1439289     -0.030931322    0.092760249   -488.31541     -415.48252     -11439.289      52.362437      48.08102       53.179096    
     21600   303.86395      0.0216         1.1498471     -0.022059102    0.086842112   -486.45315     -240.64886     -11498.471      52.360711      48.077887      53.184302    
     21700   298.58232      0.0217         1.0802393      0.053730575    0.15644992     1118.978       420.53058     -10802.393      52.297984      48.111239      53.189508    
     21800   299.30269      0.0218         1.0426468      0.080129571    0.19404237     305.5445       901.45278     -10426.468      52.37394       48.020627      53.194714    
     21900   299.94547      0.0219         1.2399422     -0.11684055     0             -486.71316     -831.03248     -12399.422      52.323059      48.111458      53.19992     
     22000   300.52947      0.022          1.1964069     -0.064502242    0.043535385   -1016.1862     -898.61434     -11964.069      52.373853      48.063903      53.205126    
     22100   300.82783      0.0221         1.066994       0.064799543    0.17294824    -140.60457      910.51366     -10669.94       52.42023       47.97587       53.210332    
     22200   306.31211      0.0222         1.1395493     -0.0061135442   0.10039295     2058.17        554.88876     -11395.493      52.219857      48.145271      53.215538    
     22300   299.97948      0.0223         1.0674211      0.059028651    0.17252111     853.54765      1086.5838     -10674.211      52.36936       47.99809       53.220744    
     22400   299.30165      0.0224         1.1461867     -0.018870444    0.093755572   -830.81142     -58.93426      -11461.867      52.424718      47.986525      53.22595     
     22500   301.43877      0.0225         1.3846987     -0.23330547     0             -1094.3691     -2087.5928     -13846.987      52.289087      48.159757      53.231156    
     22600   296.8316       0.0226         1.1548331     -0.0029413353   0.22986552    -674.69021      21.076975     -11548.331      52.413122      47.982366      53.236362    
     22700   300.0116       0.0227         1.0834186      0.068791105    0.30128002     998.75677      972.87278     -10834.186      52.350663      48.00247       53.241568    
     22800   304.40744      0.0228         1.1502835      0.012689917    0.23441517     1453.514       375.76721     -11502.835      52.288552      48.071546      53.246774    
     22900   302.90976      0.0229         1.1727274     -0.016475498    0.21197123    -885.95201      65.241478     -11727.274      52.432201      47.95842       53.25198     
     23000   299.02847      0.023          1.3085601     -0.14109282     0.076138588   -723.94566     -1243.8421     -13085.601      52.334975      48.06217       53.257186    
     23100   300.1646       0.0231         1.1626203      0.014409572    0.22207835     183.32242      391.89612     -11626.203      52.374178      47.9895        53.262391    
     23200   300.4486       0.0232         1.1370454      0.039734111    0.24765328     43.19949       811.77501     -11370.454      52.409332      47.945325      53.267597    
     23300   296.64551      0.0233         1.2881669     -0.089312869    0.09653172     277.91834     -709.26882     -12881.669      52.30083       48.061444      53.272803    
     23400   297.33682      0.0234         1.2084129     -0.0033361596   0.17628581    -1095.7188     -182.04162     -12084.129      52.454197      47.928421      53.278009    
     23500   299.55277      0.0235         1.2846574     -0.089584868    0.10004123    -663.00783     -1010.915      -12846.574      52.380337      48.003373      53.283215    
     23600   297.89477      0.0236         1.2888354     -0.080362615    0.09586325     297.63049     -615.56037     -12888.354      52.293322      48.056875      53.288421    
     23700   299.36917      0.0237         1.0388329      0.16518131     0.34586574     401.52478      1783.0496     -10388.329      52.464195      47.845162      53.293627    
     23800   304.6439       0.0238         1.1877529      0.020008304    0.1969458      1150.7548      270.60866     -11877.529      52.316865      48.005596      53.298833    
     23900   301.80759      0.0239         1.2708418     -0.053269187    0.11385688    -144.81661     -514.91965     -12708.418      52.355723      47.986693      53.304039    
     24000   295.84608      0.024          1.1643707      0.038782943    0.22032794    -441.91409      376.70899     -11643.707      52.449884      47.884078      53.309245    
     24100   299.34388      0.0241         1.3554785     -0.13303898     0.029220208   -648.6991      -980.0498      -13554.785      52.351638      48.008247      53.314451    
     24200   306.43298      0.0242         1.3075778     -0.068085092    0.077120851   -649.65645     -770.2589      -13075.778      52.388703      47.96158       53.319657    
     24300   299.67078      0.0243         1.1528518      0.073109374    0.23184683     582.67943      1022.1905     -11528.518      52.420791      47.874789      53.324863    
     24400   301.80998      0.0244         1.2260561      0.0016694641   0.1586426      1559.6135      636.80137     -12260.561      52.301436      47.979205      53.330069    
     24500   301.37233      0.0245         1.27448       -0.047772224    0.11021865    -178.38281     -33.513594     -12744.8        52.38902       47.921194      53.335275    
     24600   297.97926      0.0246         1.287615      -0.061029211    0.097083711   -955.91511     -564.85507     -12876.15       52.434635      47.899196      53.340481    
     24700   298.12222      0.0247         1.3647692     -0.10558986     0.019929428   -445.07845     -929.68134     -13647.692      52.335076      47.989608      53.345687    
     24800   298.48088      0.0248         1.2164376      0.045610278    0.1682611      291.37037      646.10309     -12164.376      52.390301      47.896063      53.350893    
     24900   303.92327      0.0249         1.1988972      0.05595621     0.18580149     577.67678      863.70565     -11988.972      52.40185       47.874795      53.356099    
     25000   299.1919       0.025          1.3399884     -0.067573268    0.044710243    89.146208     -769.11546     -13399.884      52.339201      47.961994      53.361305    
     25100   296.58967      0.0251         1.277482      -0.012866445    0.10721672    -1253.9778     -208.05715     -12774.82       52.486541      47.819286      53.366511    
     25200   299.44691      0.0252         1.2991846     -0.035408385    0.085514102    22.129602     -326.51281     -12991.846      52.370253      47.917158      53.371717    
     25300   303.53764      0.0253         1.3231454     -0.042339838    0.061553295    541.04665     -362.22932     -13231.454      52.335063      47.947488      53.376923    
     25400   299.29726      0.0254         1.1687365      0.10633712     0.21596221     34.036924      907.98557     -11687.365      52.485424      47.771938      53.382129    
     25500   295.10302      0.0255         1.2680597      0.0063718698   0.116639       827.0819       599.30459     -12680.597      52.365211      47.882658      53.387335    
     25600   299.03665      0.0256         1.3035267     -0.027504001    0.081171953    344.85829     -130.63331     -13035.267      52.366018      47.900306      53.392541    
     25700   298.82357      0.0257         1.3354361     -0.062346725    0.04926254    -1246.8761     -499.03602     -13354.361      52.460313      47.824002      53.397747    
     25800   298.96488      0.0258         1.3271125     -0.042955638    0.05758613    -119.68488     -377.45165     -13271.125      52.38732       47.874266      53.402953    
     25900   299.57162      0.0259         1.2709233      0.020436187    0.11377534     455.52328      583.21982     -12709.233      52.404033      47.841442      53.408159    
     26000   300.95327      0.026          1.2636969      0.020033456    0.12100176     689.89805      494.57012     -12636.969      52.386667      47.841151      53.413365    
     26100   299.83952      0.0261         1.3377181     -0.047964134    0.046980555   -253.56423     -206.32789     -13377.181      52.415013      47.830215      53.418571    
     26200   298.35542      0.0262         1.3693989     -0.072623499    0.015299756   -988.49569     -712.06197     -13693.989      52.44261       47.831337      53.423777    
     26300   298.66156      0.0263         1.4023201     -0.0976272      0             -905.57918     -965.83713     -14023.201      52.41452       47.851239      53.428983    
     26400   298.92104      0.0264         1.2782368      0.037406084    0.12408325     608.77748      500.87136     -12782.368      52.41561       47.798768      53.434189    
     26500   299.58569      0.0265         1.1838821      0.12334305     0.21843796     1467.2549      1485.8782     -11838.821      52.429813      47.755327      53.439395    
     26600   303.61198      0.0266         1.3151829     -0.0067921101   0.087137188    619.79651      40.159475     -13151.829      52.375784      47.84126       53.444601    
     26700   295.4353       0.0267         1.3634029     -0.052215406    0.038917218   -747.94222     -515.82053     -13634.029      52.431512      47.805183      53.449807    
     26800   296.77102      0.0268         1.3206531     -0.010111549    0.081667023   -510.1934      -351.43926     -13206.531      52.459616      47.764976      53.455013    
     26900   301.87108      0.0269         1.3964212     -0.073329868    0.0058989196  -255.40579     -589.06404     -13964.212      52.403764      47.819012      53.460219    
     27000   303.54599      0.027          1.3582009     -0.025659231    0.044119155   -169.73171     -550.53754     -13582.009      52.413321      47.80158       53.465425    
     27100   302.57711      0.0271         1.2302055      0.091584912    0.17211456     628.41843      987.56634     -12302.055      52.454002      47.722209      53.470631    
     27200   299.05091      0.0272         1.2685538      0.043152139    0.1337663      1563.921       1140.2437     -12685.538      52.369323      47.785051      53.475837    
     27300   301.77105      0.0273         1.333803      -0.02894875     0.068517118    320.65054      202.66159     -13338.03       52.408711      47.772094      53.481043    
     27400   298.09193      0.0274         1.3804347     -0.065360691    0.021885392   -846.59376     -461.16721     -13804.347      52.463276      47.749733      53.486249    
     27500   301.66967      0.0275         1.4391949     -0.098589602    0             -731.44955     -1079.6521     -14391.949      52.41819       47.800966      53.491455    
     27600   300.10391      0.0276         1.3763825     -0.02965727     0.06281237    -580.86474     -155.00563     -13763.825      52.463598      47.726166      53.496661    
     27700   304.60163      0.0277         1.2700459      0.067343623    0.16914896     1186.0671      1156.1818     -12700.459      52.412976      47.727432      53.501867    
     27800   296.5392       0.0278         1.2817111      0.051784205    0.15748373     2388.8524      1273.7755     -12817.111      52.342623      47.780905      53.507073    
     27900   300.83624      0.0279         1.3234408      0.0027565535   0.11575412    -468.47471      439.7417      -13234.408      52.488494      47.689788      53.512279    
     28000   299.24079      0.028          1.5613918     -0.21487544     0             -1789.2319     -2066.4595     -15613.918      52.439695      47.781439      53.517485    
     28100   299.11771      0.0281         1.4622219     -0.092503877    0.099169921   -1130.6565     -959.09686     -14622.219      52.454822      47.738886      53.522691    
     28200   301.06913      0.0282         1.3018963      0.071155964    0.25949551     817.11987      821.07101     -13018.963      52.447586      47.692618      53.527897    
     28300   300.3709       0.0283         1.3120746      0.058804871    0.24931725     1061.1431      900.37683     -13120.746      52.427052      47.700734      53.533103    
     28400   298.25601      0.0284         1.3569868      0.011547874    0.20440505     438.78221      385.24838     -13569.868      52.45419       47.682251      53.538308    
     28500   302.11229      0.0285         1.4199423     -0.05333286     0.14144957    -565.22307     -404.89136     -14199.423      52.448037      47.715698      53.543514    
     28600   304.36755      0.0286         1.4430025     -0.069731081    0.11838935    -392.01804     -730.61948     -14430.025      52.429365      47.74207       53.54872     
     28700   301.58579      0.0287         1.3953813     -0.0095763648   0.16601053    -861.98293     -398.97595     -13953.813      52.50705       47.654267      53.553926    
     28800   300.17722      0.0288         1.4086245     -0.01012818     0.15276738    -177.47937     -138.43258     -14086.245      52.450778      47.68505       53.559132    
     28900   297.58609      0.0289         1.2913143      0.1039693      0.27007751     1641.8637      1400.571      -12913.143      52.405801      47.679913      53.564338    
     29000   300.8441       0.029          1.2920618      0.076288802    0.26933001     911.52598      1167.9743     -12920.618      52.463411      47.635497      53.569544    
     29100   303.7702       0.0291         1.5061526     -0.13340894     0.055239192   -929.30907     -1292.2146     -15061.526      52.45494       47.705414      53.57475     
     29200   297.2361       0.0292         1.4940482     -0.10208931     0.067343633   -1197.7986     -995.09688     -14940.482      52.473336      47.674444      53.579956    
     29300   298.2552       0.0293         1.4128951     -0.010854193    0.1484967      61.24988       213.22872     -14128.951      52.461301      47.650349      53.585162    
     29400   303.16216      0.0294         1.3651326      0.037722961    0.19625928     1067.0253      578.15616     -13651.326      52.419229      47.668332      53.590368    
     29500   302.34837      0.0295         1.3333206      0.060872742    0.22807122     774.74063      857.69135     -13333.206      52.473033      47.608772      53.595574    
     29600   296.13606      0.0296         1.3564404      0.029096744    0.20495143     651.46244      799.75594     -13564.404      52.457818      47.621098      53.60078     
     29700   294.55772      0.0297         1.5319763     -0.13277966     0.029415534   -727.87002     -1066.6658     -15319.763      52.439095      47.691424      53.605986    
     29800   301.70693      0.0298         1.5662458     -0.15128705     0             -2738.8195     -1905.7909     -15662.458      52.553506      47.608026      53.611192    
     29900   295.58995      0.0299         1.4666687     -0.034174513    0.099577098   -105.29472     -472.9617      -14666.687      52.452475      47.646521      53.616398    
     30000   302.18492      0.03           1.3151819      0.11962432     0.25106392     1800.8113      1396.8204     -13151.819      52.424652      47.617854      53.621604    
     30100   305.61268      0.0301         1.3162442      0.099571169    0.25000161     956.83744      1392.6723     -13162.442      52.497136      47.557408      53.62681     
     30200   301.75766      0.0302         1.4903679     -0.074920529    0.075877946   -296.13855     -636.63992     -14903.679      52.452244      47.632757      53.632016    
     30300   301.36899      0.0303         1.5213498     -0.095056932    0.044896081   -935.20505     -662.23628     -15213.498      52.484627      47.610055      53.637222    
     30400   302.58645      0.0304         1.4432473     -0.0091430019   0.12299854     20.947872      237.59609     -14432.473      52.493647      47.584612      53.642428    
     30500   302.53209      0.0305         1.3643475      0.072859489    0.20189834     877.84587      710.10077     -13643.475      52.456717      47.586173      53.647634    
     30600   297.31033      0.0306         1.4046546      0.037373804    0.16159123     733.4008       569.24405     -14046.546      52.467959      47.576557      53.65284     
     30700   303.39486      0.0307         1.5128101     -0.072698331    0.053435718   -1310.7193     -722.03502     -15128.101      52.543758      47.550064      53.658046    
     30800   297.43192      0.0308         1.6996251     -0.24617542     0             -2759.9416     -2652.5728     -16996.251      52.512403      47.63039       53.663252    
     30900   293.55978      0.0309         1.5112136     -0.053309389    0.18841155    -718.83289     -618.0913      -15112.136      52.495367      47.572852      53.668458    
     31000   301.1764       0.031          1.2621535      0.19044788     0.43747166     2114.8833      2233.4182     -12621.535      52.509194      47.478927      53.673664    
     31100   301.14816      0.0311         1.3677971      0.089959513    0.331828       2051.7019      1478.8322     -13677.971      52.443678      47.547691      53.67887     
     31200   301.4267       0.0312         1.5171751     -0.056737734    0.18245003    -375.16262     -322.47335     -15171.751      52.508343      47.537051      53.684076    
     31300   298.27482      0.0313         1.550808      -0.087424828    0.14881711    -1549.0247     -1194.5643     -15508.08       52.552899      47.522028      53.689282    
     31400   295.98127      0.0314         1.5774088     -0.10060947     0.12221631    -993.24442     -939.11557     -15774.088      52.494402      47.573423      53.694488    
     31500   298.87058      0.0315         1.4912215     -0.0017347439   0.20840364    -205.59885     -280.77992     -14912.215      52.49192       47.541517      53.699694    
     31600   303.22269      0.0316         1.3708737      0.11523497     0.32875145     1006.6161      1312.3463     -13708.737      52.515384      47.473367      53.7049      
     31700   302.05522      0.0317         1.406575       0.068910151    0.29305014     2005.1415      1211.7046     -14065.75       52.434289      47.5362        53.710106    
     31800   298.11183      0.0318         1.4599815     -0.0084607074   0.23964365     24.793469      304.69233     -14599.815      52.519628      47.487184      53.715312    
     31900   297.29838      0.0319         1.6081859     -0.14696792     0.091439198   -1500.8149     -1608.0378     -16081.859      52.534425      47.532478      53.720518    
     32000   299.47069      0.032          1.6243042     -0.12687114     0.075320904   -1426.0038     -1273.0767     -16243.042      52.525944      47.531268      53.725724    
     32100   299.73334      0.0321         1.491648       0.018170215    0.20797718    -27.648852      291.25632     -14916.48       52.517955      47.480969      53.73093     
     32200   293.3915       0.0322         1.385187       0.11143239     0.31443816     1847.0188      1485.5916     -13851.87       52.456361      47.494065      53.736136    
     32300   299.78589      0.0323         1.4845148      0.005475207    0.2151103      83.136809      133.85364     -14845.148      52.522541      47.471557      53.741342    
     32400   303.69116      0.0324         1.5793454     -0.089161708    0.12027973    -1195.6135     -824.0012      -15793.454      52.549993      47.474696      53.746548    
     32500   299.26863      0.0325         1.5679726     -0.070113749    0.13165258     97.247373     -529.97427     -15679.726      52.472291      47.521024      53.751754    
     32600   299.20247      0.0326         1.4646756      0.042563393    0.23494953     110.24354      284.5495      -14646.756      52.550107      47.427401      53.75696     
     32700   299.6717       0.0327         1.4955235      0.020610357    0.20410164     99.618646      291.65173     -14955.235      52.538392      47.436987      53.762166    
     32800   298.34954      0.0328         1.5451656     -0.020513341    0.15445954     551.62466     -54.08367      -15451.656      52.473398      47.493684      53.767372    
     32900   298.28235      0.0329         1.4925733      0.020517662    0.2070518     -344.00512      98.327666     -14925.733      52.569475      47.401837      53.772578    
     33000   300.37769      0.033          1.5468776     -0.041529216    0.15274759    -63.391879     -40.461135     -15468.776      52.520364      47.452061      53.777784    
     33100   301.50201      0.0331         1.6154429     -0.097715072    0.084182239    491.50226     -222.60491     -16154.429      52.466422      47.495246      53.78299     
     33200   298.93081      0.0332         1.48318        0.044347098    0.2164451     -121.44456      762.92428     -14831.8        52.604179      47.340164      53.788196    
     33300   303.11152      0.0333         1.5613745     -0.026161414    0.13825062    -49.448329     -165.70034     -15613.745      52.5094        47.448884      53.793402    
     33400   300.42461      0.0334         1.6321885     -0.091691095    0.067436632    164.82228     -601.45571     -16321.885      52.442572      47.514988      53.798608    
     33500   298.61786      0.0335         1.434369       0.092768102    0.26525619    -263.94011      832.47423     -14343.69       52.623516      47.318186      53.803814    
     33600   296.64391      0.0336         1.5840081     -0.044937753    0.11561709     79.823158     -346.23043     -15840.081      52.51545       47.431529      53.809019    
     33700   299.5833       0.0337         1.6264328     -0.074271565    0.07319235    -384.55875     -583.11886     -16264.328      52.499222      47.453499      53.814225    
     33800   299.9088       0.0338         1.5063324      0.041945486    0.19329272    -357.10759      168.67457     -15063.324      52.580621      47.366945      53.819431    
     33900   302.12381      0.0339         1.6087404     -0.048845746    0.090884786   -170.09954     -518.72252     -16087.404      52.517317      47.418688      53.824637    
     34000   299.25049      0.034          1.5418676      0.017526007    0.15775753     407.9895       109.04835     -15418.676      52.532981      47.3811        53.829843    
     34100   301.21307      0.0341         1.4680195      0.076631771    0.23160564     979.1425       1054.5236     -14680.195      52.552201      47.349219      53.835049    
     34200   300.09222      0.0342         1.5921967     -0.036643748    0.10742845    -78.159544     -499.2575      -15921.967      52.509893      47.414295      53.840255    
     34300   300.83145      0.0343         1.6350028     -0.072086992    0.064622385   -1441.7474     -767.40741     -16350.028      52.589321      47.352585      53.845461    
     34400   302.68563      0.0344         1.5428775      0.011107173    0.15674765     267.38641      130.43087     -15428.775      52.535443      47.368294      53.850667    
     34500   302.37813      0.0345         1.4757895      0.082337191    0.22383561     1492.9655      1192.45       -14757.895      52.507054      47.361412      53.855873    
     34600   300.49039      0.0346         1.4671422      0.079297939    0.23248295     879.39059      1239.1844     -14671.422      52.561697      47.303449      53.861079    
     34700   300.25052      0.0347         1.6498128     -0.10103465     0.049812357   -762.36757     -764.1705      -16498.128      52.544796      47.369216      53.866285    
     34800   302.50254      0.0348         1.7061736     -0.13741134     0             -1239.9706     -1149.4113     -17061.736      52.542011      47.389131      53.871491    
     34900   295.18074      0.0349         1.5476373      0.015014679    0.15853633    -277.35894      81.704807     -15476.373      52.592728      47.302953      53.876697    
     35000   301.56582      0.035          1.5088875      0.050466474    0.19728614     478.87244      748.20908     -15088.875      52.557559      47.31581       53.881903    
     35100   300.03438      0.0351         1.5773098     -0.0070268365   0.1288638      1226.9634      434.33178     -15773.098      52.476124      47.393809      53.887109    
     35200   300.21345      0.0352         1.5433017      0.022091758    0.1628719     -175.36153      428.9344      -15433.017      52.607527      47.264599      53.892315    
     35300   297.59731      0.0353         1.6066098     -0.044055658    0.099563775   -540.26706     -316.74434     -16066.098      52.5836        47.306283      53.897521    
     35400   300.56143      0.0354         1.7246764     -0.14394232     0             -924.71958     -1351.1031     -17246.764      52.542061      47.372339      53.902727    
     35500   300.54904      0.0355         1.6202268     -0.02504902     0.10444958    -1235.5086     -591.1318      -16202.268      52.622975      47.27846       53.907933    
     35600   299.09941      0.0356         1.6107556     -0.0012165075   0.11392075     184.66106      178.09796     -16107.556      52.543658      47.310899      53.913139    
     35700   295.68805      0.0357         1.5752001      0.026877753    0.14947628     951.70215      570.08499     -15752.001      52.519947      47.313805      53.918345    
     35800   297.92481      0.0358         1.5336164      0.051205703    0.19105994     28.564266      393.14938     -15336.164      52.61802       47.23619       53.923551    
     35900   298.47074      0.0359         1.6583633     -0.062468582    0.06631305    -809.25936     -724.49842     -16583.633      52.606284      47.269993      53.928757    
     36000   295.72699      0.036          1.6888072     -0.074920465    0.035869194   -703.42809     -929.00344     -16888.072      52.570412      47.297293      53.933963    
     36100   299.04104      0.0361         1.6138579      0.0036836683   0.11081852    -87.614243     -119.95882     -16138.579      52.584384      47.262042      53.939169    
     36200   299.13457      0.0362         1.5687331      0.051351577    0.15594329     487.44823      628.26789     -15687.331      52.582885      47.24415       53.944375    
     36300   305.06635      0.0363         1.5972188      0.021926789    0.12745761     861.32678      326.64288     -15972.188      52.536164      47.288167      53.949581    
     36400   301.95097      0.0364         1.6234349     -0.014413489    0.10124148    -90.218305      62.562327     -16234.349      52.58805       47.242729      53.954787    
     36500   299.84774      0.0365         1.6614806     -0.048333807    0.063195782   -1288.8839     -539.09102     -16614.806      52.640231      47.210223      53.959993    
     36600   301.99668      0.0366         1.7140599     -0.090582705    0.010616454   -152.66768     -802.01778     -17140.599      52.526689      47.316787      53.965199    
     36700   296.72787      0.0367         1.5566407      0.064980561    0.16803566     826.08144      685.59581     -15566.407      52.565654      47.228117      53.970405    
     36800   300.23211      0.0368         1.5683418      0.056752038    0.1563346      473.65351      878.78494     -15683.418      52.612282      47.177103      53.975611    
     36900   305.57505      0.0369         1.6396653     -0.016441305    0.08501106     39.341453     -223.0994      -16396.653      52.560403      47.245593      53.980817    
     37000   300.67761      0.037          1.610465       0.0049247892   0.11421137    -94.681224      112.87042     -16104.65       52.618474      47.189404      53.986023    
     37100   293.53364      0.0371         1.586881       0.025811145    0.13779542    -223.25152      105.74436     -15868.81       52.628854      47.174343      53.991229    
     37200   302.38651      0.0372         1.7396736     -0.10988748     0             -440.73189     -951.10764     -17396.736      52.565197      47.252848      53.996435    
     37300   295.86024      0.0373         1.5725676      0.054753474    0.16710608     207.74408      672.91446     -15725.676      52.62152       47.160011      54.001641    
     37400   298.98069      0.0374         1.5869471      0.036725173    0.15272656     691.96435      646.31427     -15869.471      52.595228      47.175996      54.006847    
     37500   298.85329      0.0375         1.7424033     -0.11063879     0             -281.11229     -804.1537      -17424.033      52.570588      47.231862      54.012053    
     37600   302.28005      0.0376         1.7016767     -0.071150509    0.040726603   -1102.5935     -627.69097     -17016.767      52.645979      47.166157      54.017259    
     37700   297.93351      0.0377         1.672838      -0.03069202     0.069565367   -513.70041     -292.54012     -16728.38       52.602299      47.190374      54.022465    
     37800   298.75722      0.0378         1.6856604     -0.031782579    0.056742949    322.65529     -159.46286     -16856.604      52.557961      47.20628       54.027671    
     37900   302.62674      0.0379         1.5608532      0.085143344    0.18155008     456.10195      903.68836     -15608.532      52.654457      47.09898       54.032877    
     38000   301.8874       0.038          1.586777       0.056850761    0.15562629     1011.2373      723.55735     -15867.77       52.60811       47.139012      54.038083    
     38100   298.13845      0.0381         1.7347388     -0.076325188    0.007664565   -147.74659     -528.44848     -17347.388      52.570363      47.19979       54.043289    
     38200   298.17656      0.0382         1.7657811     -0.10475682     0             -1546.7301     -1064.4768     -17657.811      52.667811      47.130929      54.048495    
     38300   303.74823      0.0383         1.6832771     -0.011181858    0.082504007   -513.45432     -260.24436     -16832.771      52.631098      47.139147      54.053701    
     38400   297.41262      0.0384         1.623016       0.052686133    0.1427651      1321.7048      561.64101     -16230.16       52.536082      47.184084      54.058907    
     38500   303.94433      0.0385         1.5887638      0.071574391    0.17701731     310.94539      866.09344     -15887.638      52.633579      47.090985      54.064113    
     38600   301.2493       0.0386         1.6703561     -0.013149915    0.095425069    115.78985      42.384806     -16703.561      52.601609      47.137746      54.069319    
     38700   300.23776      0.0387         1.7505741     -0.085594357    0.015207009   -515.4169      -594.44534     -17505.741      52.603363      47.156608      54.074525    
     38800   297.11586      0.0388         1.735155      -0.065225801    0.030626098   -1044.1578     -735.8303      -17351.55       52.660061      47.09938       54.079731    
     38900   296.99491      0.0389         1.6672837      0.013288611    0.098497467   -169.51775      143.8464      -16672.837      52.625686      47.104919      54.084936    
     39000   305.07633      0.039          1.684846       0.0055331393   0.080935093    827.82068      193.17702     -16848.46       52.567013      47.144007      54.090142    
     39100   302.57014      0.0391         1.5216982      0.14737693     0.24408294     1017.4583      1552.2254     -15216.982      52.657143      47.021212      54.095348    
     39200   301.21575      0.0392         1.6063786      0.046756271    0.15940253     1165.0525      942.67581     -16063.786      52.606446      47.079118      54.100554    
     39300   302.63148      0.0393         1.8653465     -0.19400473     0             -910.05966     -1565.0017     -18653.465      52.579642      47.172106      54.10576     
     39400   299.48691      0.0394         1.7776215     -0.09081916     0.087725022   -2520.6495     -1564.4132     -17776.215      52.722901      47.046621      54.110966    
     39500   303.49835      0.0395         1.6887508      0.0080502893   0.17659578     243.89425      252.74574     -16887.508      52.619536      47.08399       54.116172    
     39600   298.04096      0.0396         1.615947       0.075413138    0.24939953     2138.9001      1135.032      -16159.47       52.546783      47.105728      54.121378    
[...]
     81200   300.38377      0.0812         1.3433753     -0.12166997     0.71267507    -672.77771     -975.88324     -13433.753      52.129639      45.659321      56.287066    
     81300   297.28769      0.0813         1.2546135     -0.026495534    0.80143684     657.39378      580.85223     -12546.135      52.112534      45.631949      56.292272    
     81400   297.94778      0.0814         1.2054536      0.03052181     0.85059673     789.08839      691.9906      -12054.536      52.121392      45.607005      56.297478    
     81500   302.00804      0.0815         1.2995401     -0.054062918    0.75651026    -246.81154     -596.30864     -12995.401      52.179519      45.591636      56.302684    
     81600   299.4518       0.0816         1.3300443     -0.069718124    0.72600598    -1998.0722     -976.77292     -13300.443      52.321027      45.487549      56.30789     
     81700   299.12406      0.0817         1.3202968     -0.055328077    0.7357535     -200.89658     -864.39851     -13202.968      52.183412      45.589314      56.313096    
     81800   300.71237      0.0818         1.1793894      0.077459124    0.87666094     644.75156      1179.5279     -11793.894      52.150698      45.589754      56.318302    
     81900   303.81226      0.0819         1.2527299      0.014979972    0.80332048     1190.1502      536.7242      -12527.299      52.074804      45.648447      56.323508    
     82000   303.15335      0.082          1.2594142      0.013919224    0.79663615     266.03946      469.82843     -12594.142      52.151381      45.576133      56.328714    
     82100   300.66396      0.0821         1.3201054     -0.043609186    0.7359449     -214.4795      -223.07912     -13201.054      52.179854      45.562175      56.33392     
     82200   295.56209      0.0822         1.416665      -0.13283975     0.63938536    -831.95249     -1115.4599     -14166.65       52.141395      45.609727      56.339126    
     82300   303.47471      0.0823         1.3560946     -0.062121236    0.69995577    -601.81372     -129.88239     -13560.946      52.169606      45.553604      56.344332    
     82400   299.74177      0.0824         1.2311566      0.065386986    0.82489369     1327.2285      1036.667      -12311.566      52.161534      45.535693      56.349538    
     82500   301.12204      0.0825         1.2408193      0.049852298    0.81523108     688.22993      704.99715     -12408.193      52.212331      45.497668      56.354744    
     82600   298.76595      0.0826         1.3985631     -0.10103969     0.65748722    -1084.2196     -553.33614     -13985.631      52.235537      45.510992      56.35995     
     82700   297.04699      0.0827         1.4415729     -0.13192191     0.61447739    -776.89557     -1250.7577     -14415.729      52.125772      45.631096      56.365156    
     82800   295.94187      0.0828         1.3868559     -0.056458221    0.66919443    -587.5386      -387.97021     -13868.559      52.141268      45.600866      56.370362    
     82900   301.45803      0.0829         1.3626974     -0.021302932    0.69335296    -308.52849     -143.08404     -13626.974      52.148564      45.568261      56.375568    
     83000   303.07352      0.083          1.263819       0.078015884    0.79223129     1757.6754      889.64136     -12638.19       52.11877       45.544422      56.380774    
     83100   302.07216      0.0831         1.1833694      0.14479196     0.87268098     859.54244      1895.9464     -11833.694      52.232251      45.42854       56.38598     
     83200   305.51583      0.0832         1.4686472     -0.13528766     0.58740313     131.34482     -950.18101     -14686.472      52.114496      45.589965      56.391186    
     83300   297.81769      0.0833         1.407314      -0.068832493    0.64873636    -939.9273      -385.50749     -14073.14       52.210414      45.511317      56.396392    
     83400   294.76022      0.0834         1.4596344     -0.098305149    0.59641593    -864.35598     -992.84828     -14596.344      52.165689      45.552298      56.401598    
     83500   299.18753      0.0835         1.4096036     -0.031395914    0.64644673    -445.71823     -553.94833     -14096.036      52.187067      45.525855      56.406804    
     83600   299.33618      0.0836         1.2419783      0.12057095     0.81407207     802.93519      1374.1598     -12419.783      52.216135      45.448212      56.41201     
     83700   295.74925      0.0837         1.3582709     -0.0040518798   0.69777945     1549.0199      557.63119     -13582.709      52.091725      45.560805      56.417216    
     83800   302.01142      0.0838         1.4614236     -0.099747837    0.59462673    -1306.9283     -858.95127     -14614.236      52.176066      45.531463      56.422422    
     83900   300.08104      0.0839         1.5198587     -0.14246678     0.53619165    -1173.1154     -1533.1621     -15198.587      52.174212      45.546586      56.427628    
     84000   300.45027      0.084          1.3624403      0.024813716    0.69361002     57.328155      385.01502     -13624.403      52.229756      45.450065      56.432834    
     84100   302.18566      0.0841         1.3347184      0.067670538    0.72133194     863.0897       909.62481     -13347.184      52.203324      45.443387      56.43804     
     84200   301.56417      0.0842         1.3997654     -0.0042646075   0.65628498     511.22191      295.28841     -13997.654      52.143327      45.500757      56.443246    
     84300   294.74458      0.0843         1.472912      -0.070851426    0.58313836     234.02792     -213.98613     -14729.12       52.110079      45.54039       56.448452    
     84400   298.71239      0.0844         1.499192      -0.093175689    0.55685834    -899.89058     -339.15218     -14991.92       52.192368      45.484356      56.453658    
     84500   304.83719      0.0845         1.5350875     -0.11652278     0.52096286    -1397.8161     -1244.1726     -15350.875      52.222267      45.474939      56.458864    
     84600   299.21025      0.0846         1.3953774      0.038527209    0.66067294     571.04992      294.66868     -13953.774      52.165967      45.477716      56.46407     
     84700   295.5019       0.0847         1.3390317      0.092949029    0.71701868     1533.8902      1613.2834     -13390.317      52.143652      45.460036      56.469276    
     84800   297.51513      0.0848         1.4357737     -0.0063579961   0.62027664     271.22192      20.635104     -14357.737      52.161717      45.48176       56.474482    
     84900   299.00227      0.0849         1.4851066     -0.059166128    0.57094372    -1030.0815     -533.11171     -14851.066      52.248158      45.43275       56.479688    
     85000   297.44171      0.085          1.4619668     -0.026073662    0.59408354    -550.10559     -773.69568     -14619.668      52.221258      45.442342      56.484894    
     85100   301.86629      0.0851         1.4716112     -0.022028772    0.58443915    -550.92872     -471.34426     -14716.112      52.217505      45.427736      56.4901      
     85200   297.70986      0.0852         1.4370743      0.016238979    0.618976       448.70127      463.08291     -14370.743      52.144675      45.461169      56.495306    
     85300   296.86048      0.0853         1.4321778      0.017062132    0.62387258     1048.0585      677.08561     -14321.778      52.082299      45.508591      56.500512    
     85400   302.45777      0.0854         1.4988031     -0.049602134    0.5572472     -490.82362     -409.24899     -14988.031      52.163389      45.469561      56.505718    
     85500   300.20459      0.0855         1.5030314     -0.057036017    0.55301892    -853.86186     -694.13957     -15030.314      52.219946      45.423326      56.510924    
     85600   302.76921      0.0856         1.4296565      0.019766815    0.62639384    -70.520462      52.407838     -14296.565      52.229693      45.399458      56.51613     
     85700   299.23649      0.0857         1.3858506      0.06825459     0.67019972     1407.2082      990.5709      -13858.506      52.163296      45.421018      56.521336    
     85800   300.45433      0.0858         1.417565       0.034719371    0.63848537     1029.9189      838.06006     -14175.65       52.163371      45.420964      56.526542    
     85900   306.49779      0.0859         1.5273331     -0.070826158    0.52871719    -1003.0193     -896.3826      -15273.331      52.222122      45.410085      56.531748    
     86000   303.64563      0.086          1.5669915     -0.099982024    0.48905886    -1432.5116     -1093.0774     -15669.915      52.255792      45.385959      56.536954    
     86100   297.21878      0.0861         1.4529443      0.012198491    0.60310607     561.87114      450.26794     -14529.443      52.180868      45.396678      56.54216     
     86200   306.00588      0.0862         1.4553434      0.011626229    0.60070689     1463.5825      1026.322      -14553.434      52.088153      45.45529       56.547365    
     86300   295.57045      0.0863         1.4751127     -0.0038495105   0.58093766     1051.5955      1008.4269     -14751.127      52.121038      45.431173      56.552571    
     86400   297.13577      0.0864         1.5390495     -0.06376174     0.51700079    -411.95491     -367.27235     -15390.495      52.19537       45.406415      56.557777    
     86500   302.81478      0.0865         1.5628145     -0.081548368    0.49323586    -1372.4848     -1153.2977     -15628.145      52.250809      45.375566      56.562983    
     86600   298.24382      0.0866         1.4830921      0.0035175766   0.57295824    -234.15454      85.839254     -14830.921      52.237447      45.347156      56.568189    
     86700   298.62806      0.0867         1.4193458      0.070613365    0.63670451     1620.8474      1019.7956     -14193.458      52.179667      45.361829      56.573395    
     86800   303.09601      0.0868         1.4181108      0.071902942    0.6379395      730.30959      730.64407     -14181.108      52.23168       45.325331      56.578601    
     86900   298.45452      0.0869         1.5853175     -0.089505311    0.47073281    -892.89939     -1012.4626     -15853.175      52.239269      45.3511        56.583807    
     87000   298.4549       0.087          1.6097219     -0.10963662     0.44632846    -1156.7552     -890.48804     -16097.219      52.211163      45.375182      56.589013    
     87100   300.51512      0.0871         1.5415642     -0.032616961    0.51448612     899.32932      106.25943     -15415.642      52.113443      45.430004      56.594219    
     87200   298.49431      0.0872         1.456124       0.052901338    0.59992637     600.53704      1256.9112     -14561.24       52.1947        45.333747      56.599425    
     87300   297.87819      0.0873         1.5119779      0.00073390504  0.54407241     377.20381      177.60514     -15119.779      52.18001       45.363706      56.604631    
     87400   299.37336      0.0874         1.6107309     -0.090850976    0.44531939    -856.77801     -762.91824     -16107.309      52.222131      45.358787      56.609837    
     87500   299.4335       0.0875         1.6360274     -0.10882612     0.42002296    -1522.4329     -1159.2451     -16360.274      52.249307      45.346156      56.615043    
     87600   297.20472      0.0876         1.5472263     -0.013611594    0.50882406     191.96774     -277.50141     -15472.263      52.210249      45.342562      56.620249    
     87700   295.09233      0.0877         1.4634504      0.074574694    0.59259989     464.38088      787.00775     -14634.504      52.265232      45.262239      56.625455    
     87800   302.70919      0.0878         1.5149694      0.032741564    0.5410809      470.10288      389.40999     -15149.694      52.22164       45.306742      56.630661    
     87900   300.61269      0.0879         1.5585098     -0.013479607    0.4975405      241.24827     -48.753861     -15585.098      52.168559      45.365249      56.635867    
     88000   295.6048       0.088          1.6645435     -0.11403108     0.39150687    -691.76874     -683.07084     -16645.435      52.151323      45.397381      56.641073    
     88100   297.50001      0.0881         1.6836003     -0.11888431     0.37245003    -1273.8198     -1236.9408     -16836.003      52.208482      45.345147      56.646279    
     88200   299.82392      0.0882         1.5061011      0.063612633    0.54994926     266.26534      556.02456     -15061.011      52.25543       45.255147      56.651485    
     88300   300.41517      0.0883         1.4697309      0.095758116    0.58631945     1236.7364      1153.0941     -14697.309      52.222372      45.269572      56.656691    
     88400   300.37764      0.0884         1.5633396     -0.0025896972   0.49271077     368.719        63.370397     -15633.396      52.196599      45.313583      56.661897    
     88500   297.06371      0.0885         1.6725694     -0.10816536     0.38348091    -814.60964     -935.46686     -16725.694      52.224806      45.31085       56.667103    
     88600   302.3287       0.0886         1.6327511     -0.05979458     0.4232992     -1158.4889     -743.83762     -16327.511      52.280042      45.262559      56.672309    
     88700   303.03877      0.0887         1.5572363      0.025098869    0.49881406     833.84454      222.53209     -15572.363      52.202531      45.292875      56.677515    
     88800   297.96535      0.0888         1.4792388      0.09952328     0.57681154     1113.1199      1578.7046     -14792.388      52.20482       45.259898      56.682721    
     88900   295.15151      0.0889         1.6735468     -0.083281065    0.38250349     203.79797     -516.96644     -16735.468      52.147131      45.347435      56.687927    
     89000   301.25999      0.089          1.7205003     -0.12463886     0.33555002    -1683.5076     -1145.1816     -17205.003      52.245061      45.293556      56.693133    
     89100   298.3083       0.0891         1.6041092     -0.016196824    0.45194116     130.52144     -153.34924     -16041.092      52.233057      45.257367      56.698339    
     89200   298.86961      0.0892         1.5015791      0.085881046    0.55447123     916.85479      1123.5536     -15015.791      52.251379      45.205124      56.703545    
     89300   303.60953      0.0893         1.602324      -0.0016044979   0.45372638     63.474043      135.15344     -16023.24       52.219743      45.260599      56.708751    
     89400   300.91201      0.0894         1.6364976     -0.02846236     0.41955271     8.9568328     -365.82505     -16364.976      52.185739      45.295965      56.713957    
     89500   300.14152      0.0895         1.5862022      0.013196325    0.46984812    -7.8629844      383.06528     -15862.022      52.248923      45.231994      56.719163    
     89600   302.59551      0.0896         1.6126844     -0.015292489    0.44336598     321.32752     -127.6009      -16126.844      52.202825      45.275731      56.724369    
     89700   299.67354      0.0897         1.6467367     -0.040394753    0.40931368    -732.60927     -15.499135     -16467.367      52.268562      45.21748       56.729575    
     89800   301.71611      0.0898         1.6212163     -0.00067668053  0.434834       451.47302     -19.724148     -16212.163      52.191396      45.267783      56.734781    
     89900   297.11104      0.0899         1.6208471     -0.0055774075   0.43520324     209.98805      221.62035     -16208.471      52.233338      45.214417      56.739987    
     90000   295.49004      0.09           1.6405145     -0.033243423    0.41553581    -190.36205     -135.60908     -16405.145      52.257212      45.199591      56.745193    
     90100   300.81094      0.0901         1.6430069     -0.031845986    0.41304348    -199.86451     -21.322864     -16430.069      52.24472       45.21177       56.750399    
     90200   297.99234      0.0902         1.6646483     -0.037180503    0.39140204     211.39736      90.819512     -16646.483      52.223462      45.22917       56.755605    
     90300   299.60382      0.0903         1.6071066      0.020839483    0.44894376     318.55582      342.57501     -16071.066      52.227646      45.221113      56.760811    
     90400   299.26559      0.0904         1.6489632     -0.01977061     0.40708711     103.19424     -121.44677     -16489.632      52.241424      45.211827      56.766017    
     90500   298.80143      0.0905         1.6891996     -0.049707287    0.36685069    -698.9991      -469.19578     -16891.996      52.248888      45.208033      56.771223    
     90600   305.88726      0.0906         1.7801206     -0.12388463     0.27592972    -1025.6267     -1043.8801     -17801.206      52.207974      45.264351      56.776429    
     90700   301.20299      0.0907         1.6352708      0.019818636    0.42077958     1000.9804      671.78059     -16352.708      52.171034      45.240041      56.781635    
     90800   299.55796      0.0908         1.5440601      0.10331363     0.51199019     1695.0077      1659.858      -15440.601      52.213654      45.163535      56.786841    
ERROR on proc 0: Python evaluation of function peak_tracker failed (src/PYTHON/python_impl.cpp:416)
 0.41955271     8.9568328     -365.82505     -16364.976      52.185739      45.295965      56.713957    
     89500   300.14152      0.0895         1.5862022      0.013196325    0.46984812    -7.8629844      383.06528     -15862.022      52.248923      45.231994      56.719163    
     89600   302.59551      0.0896         1.6126844     -0.015292489    0.44336598     321.32752     -127.6009      -16126.844      52.202825      45.275731      56.724369    
     89700   299.67354      0.0897         1.6467367     -0.040394753    0.40931368    -732.60927     -15.499135     -16467.367      52.268562      45.21748       56.729575    
     89800   301.71611      0.0898         1.6212163     -0.00067668053  0.434834       451.47302     -19.724148     -16212.163      52.191396      45.267783      56.734781    
     89900   297.11104      0.0899         1.6208471     -0.0055774075   0.43520324     209.98805      221.62035     -16208.471      52.233338      45.214417      56.739987    
     90000   295.49004      0.09           1.6405145     -0.033243423    0.41553581    -190.36205     -135.60908     -16405.145      52.257212      45.199591      56.745193    
     90100   300.81094      0.0901         1.6430069     -0.031845986    0.41304348    -199.86451     -21.322864     -16430.069      52.24472       45.21177       56.750399    
     90200   297.99234      0.0902         1.6646483     -0.037180503    0.39140204     211.39736      90.819512     -16646.483      52.223462      45.22917       56.755605    
     90300   299.60382      0.0903         1.6071066      0.020839483    0.44894376     318.55582      342.57501     -16071.066      52.227646      45.221113      56.760811    
     90400   299.26559      0.0904         1.6489632     -0.01977061     0.40708711     103.19424     -121.44677     -16489.632      52.241424      45.211827      56.766017    
     90500   298.80143      0.0905         1.6891996     -0.049707287    0.36685069    -698.9991      -469.19578     -16891.996      52.248888      45.208033      56.771223    
     90600   305.88726      0.0906         1.7801206     -0.12388463     0.27592972    -1025.6267     -1043.8801     -17801.206      52.207974      45.264351      56.776429    
     90700   301.20299      0.0907         1.6352708      0.019818636    0.42077958     1000.9804      671.78059     -16352.708      52.171034      45.240041      56.781635    
     90800   299.55796      0.0908         1.5440601      0.10331363     0.51199019     1695.0077      1659.858      -15440.601      52.213654      45.163535      56.786841    
ERROR on proc 0: Python evaluation of function peak_tracker failed (src/PYTHON/python_impl.cpp:416)
