LAMMPS (11 Feb 2026 - Development - b75dfcc)
OMP_NUM_THREADS environment is not set. Defaulting to 1 thread.
  using 1 OpenMP thread(s) per MPI task
package gpu 1
units metal
boundary p p p
atom_style atomic
timestep 0.002
read_data data.crystal
Reading data file ...
  orthogonal box = (0 0 0) to (101.95 101.95 101.95)
  1 by 1 by 1 MPI processor grid
  reading atoms ...
  62500 atoms
  read_data CPU = 0.133 seconds
change_box all triclinic
Changing box ...
  triclinic box = (0 0 0) to (101.95 101.95 101.95) with tilt (0 0 0)

pair_style eam
pair_coeff 1 1 Au_u3.eam
Reading eam potential file Au_u3.eam with DATE: 2007-06-11

neighbor 2.0 bin
neigh_modify delay 10 check yes

thermo 100
thermo_style custom step temp pe press pxx pyy pzz lx ly lz

print '=== Phase 1: 0K Relaxation ==='
=== Phase 1: 0K Relaxation ===
fix relax all box/relax aniso 0.0 vmax 0.001
minimize 1.0e-8 1.0e-10 10000 100000

CITE-CITE-CITE-CITE-CITE-CITE-CITE-CITE-CITE-CITE-CITE-CITE-CITE

Your simulation uses code contributions which should be cited:

- GPU package (short-range, long-range and three-body potentials): https://doi.org/10.1016/j.cpc.2010.12.021, https://doi.org/10.1016/j.cpc.2011.10.012, https://doi.org/10.1016/j.cpc.2013.08.002, https://doi.org/10.1016/j.commatsci.2014.10.068, https://doi.org/10.1016/j.cpc.2016.10.020, https://doi.org/10.3233/APC200086

@Article{Brown11,
 author = {W. M. Brown and P. Wang and S. J. Plimpton and A. N. Tharrington},
 title = {Implementing Molecular Dynamics on Hybrid High Performance Computers---Short Range Forces},
 journal = {Comput.\ Phys.\ Commun.},
 year =    2011,
 volume =  182,
 pages =   {898--911},
 doi =     {10.1016/j.cpc.2010.12.021}
}

@ArticDone.

Setting up cg style minimization ...
  Unit style    : metal
  Current step  : 0
WARNING: Energy due to 3 extra global DOFs will be included in minimizer energies
 (src/min.cpp:222)
Per MPI rank memory allocation (min/avg/max) = 23.26 | 23.26 | 23.26 Mbytes
   Step          Temp          PotEng         Press           Pxx            Pyy            Pzz             Lx             Ly             Lz      
         0   0             -245623.79      2464.2699      2464.2697      2464.2704      2464.2695      101.95         101.95         101.95       
         2   0             -245625        -0.028051288   -0.028417519   -0.027120808   -0.028615537    102            102            102          
Loop time of 0.0320456 on 1 procs for 2 steps with 62500 atoms

94.6% CPU use with 1 MPI tasks x 1 OpenMP threads

Minimization stats:
  Stopping criterion = energy tolerance
  Energy initial, next-to-last, final = 
     -245623.793793339  -245624.994081324  -245624.995814284
  Force two-norm initial, final = 2822.9308 0.032365177
  Force max component initial, final = 1629.8202 0.018944325
  Final line search alpha, max atom move = 0.00019380481 3.6715013e-06
  Iterations, force evaluations = 2 4

MPI task timing breakdown:
Section |  min time  |  avg time  |  max time  |%varavg| %total
---------------------------------------------------------------
Pair    | 0.022082   | 0.022082   | 0.022082   |   0.0 | 68.91
Neigh   | 0          | 0          | 0          |   0.0 |  0.00
Comm    | 0.00072102 | 0.00072102 | 0.00072102 |   0.0 |  2.25
Output  | 0          | 0          | 0          |   0.0 |  0.00
Modify  | 7.21e-07   | 7.21e-07   | 7.21e-07   |   0.0 |  0.00
Other   |            | 0.009242   |            |       | 28.84

Nlocal:          62500 ave       62500 max       62500 min
Histogram: 1 0 0 0 0 0 0 0 0 0
Nghost:          30096 ave       30096 max       30096 min
Histogram: 1 0 0 0 0 0 0 0 0 0
Neighs:              0 ave           0 max           0 min
Histogram: 1 0 0 0 0 0 0 0 0 0

Total # of neighbors = 0
Ave neighs/atom = 0
Neighbor list builds = 0
Dangerous builds = 0
=== Phase 2: Equilibration at 300.0K ===


---------------------------------------------------------------------
      Device Time Info (average): 
---------------------------------------------------------------------
Data Transfer:   0.0163 s.
Neighbor copy:   0.0001 s.
Neighbor build:  0.0004 s.
Force calc:      0.0055 s.
Device Overhead: 0.0002 s.
CPU Neighbor:    0.0029 s.
CPU Cast/Pack:   0.0038 s.
CPU Driver_Time: 0.0002 s.
CPU Idle_Time:   0.0186 s.
Average split:   1.0000.
Max Mem / Proc:  52.66 MB.
Prefetch mode:   None.
Vector width:    32.
Lanes / atom:    4.
Pair block:      256.
Neigh block:     128.
Neigh mode:      Hybrid (binning on host) with subgroup support.
Neigh sorting:   Unavailable or disabled.
---------------------------------------------------------------------


--------------------------------------------------------------------------
- Using acceleration for eam:
-  with 1 proc(s) per device.
-  with 1 thread(s) per proc.
-  Horizontal vector operations: ENABLED
-  Shared memory system: No
--------------------------------------------------------------------------
Device 0: NVIDIA RTX A4000, 48 CUs, 16/16 GB, 1.6 GHZ (Mixed Precision)
--------------------------------------------------------------------------

Initializing Device and compiling on process 0...Done.
Initializing Device 0 on core 0...Done.

Setting up Verlet run ...
  Unit style    : metal
  Current step  : 0
  Time step     : 0.002
Per MPI rank memory allocation (min/avg/max) = 18.24 | 18.24 | 18.24 Mbytes
   Step          Temp          PotEng         Press           Pxx            Pyy            Pzz             Lx             Ly             Lz      
         0   300           -245625         2439.3411      2435.7852      2465.7685      2416.4696      102            102            102          
       100   159.31927     -244293.44      4248.2734      4251.203       4264.0614      4229.5559      102.11012      102.10436      102.10338    
       200   149.52261     -243813.52     -1758.6267     -1748.4583     -1755.2605     -1772.1613      102.31112      102.30407      102.3001     
       300   221.35534     -243922.51     -2689.4645     -2689.3549     -2716.5311     -2662.5076      102.31576      102.30825      102.30812    
       400   260.64561     -243725.94      2230.5295      2257.7747      2207.8236      2225.9901      102.23913      102.2353       102.23412    
       500   268.0486      -243305.38      1612.1424      1554.4175      1637.9055      1644.1041      102.32787      102.31174      102.30766    
       600   287.54967     -243065.11     -1331.3593     -1301.4948     -1300.886      -1391.697       102.41274      102.41222      102.41032    
       700   311.21169     -243077.16     -139.54937     -124.57601     -195.20786     -98.864222      102.39701      102.38329      102.37965    
       800   303.26695     -243149.91      559.86604      558.05198      610.58789      510.95826      102.38374      102.33243      102.36935    
       900   297.64577     -243177.73     -244.89931     -238.29837     -247.16506     -249.23451      102.39308      102.36525      102.36616    
      1000   301.18723     -243093.92      113.22287      85.706198      135.77737      118.18505      102.39005      102.37232      102.37341    
      1100   299.5739      -243072.49     -137.14116     -155.1709      -147.17548     -109.0771       102.39326      102.37116      102.39627    
      1200   297.04671     -243140.5      -24.195705     -7.8196142      10.417171     -75.184671      102.39429      102.34471      102.38611    
      1300   299.71736     -243137.58      173.60383      126.90383      193.1612       200.74646      102.4043       102.35683      102.35343    
      1400   300.86912     -243089.41     -158.3658      -166.7581      -135.065       -173.27428      102.38324      102.37789      102.39588    
      1500   298.96317     -243101.6      -114.52825     -18.690752     -150.84368     -174.05032      102.36036      102.38813      102.40024    
      1600   298.05122     -243143.76      117.72189      10.074424      145.19931      197.89195      102.43511      102.33745      102.34307    
      1700   301.52763     -243124.3       86.706239     -38.809071      236.08373      62.844056      102.42714      102.31867      102.38264    
      1800   300.98063     -243100.87     -133.73462      79.425594     -281.33362     -199.29583      102.27642      102.45668      102.4183     
      1900   299.97594     -243120.61      135.83659      137.95165      116.59819      152.95994      102.36525      102.39934      102.36186    
      2000   298.72149     -243120.77     -240.48271     -500.07574     -66.917466     -154.45494      102.53811      102.27725      102.33396    
      2100   299.63048     -243116.33      111.34745      241.53337      47.085988      45.422987      102.33566      102.40122      102.39301    
      2200   300.03108     -243113.96      31.307823      164.84291     -66.854297     -4.0651412      102.29041      102.46694      102.37712    
      2300   299.48938     -243106.28     -37.025466     -186.36022      31.451714      43.832112      102.44744      102.34577      102.34949    
      2400   299.45349     -243131.79     -62.637121     -67.212659      64.718072     -185.41677      102.40518      102.329        102.40001    
      2500   300.79343     -243134.02      73.307238      129.29539     -34.915903      125.54223      102.33472      102.42321      102.36678    
Loop time of 12.2058 on 1 procs for 2500 steps with 62500 atoms

Performance: 35.393 ns/day, 0.678 hours/ns, 204.821 timesteps/s, 12.801 Matom-step/s
99.7% CPU use with 1 MPI tasks x 1 OpenMP threads

MPI task timing breakdown:
Section |  min time  |  avg time  |  max time  |%varavg| %total
---------------------------------------------------------------
Pair    | 7.5688     | 7.5688     | 7.5688     |   0.0 | 62.01
Neigh   | 0.00016462 | 0.00016462 | 0.00016462 |   0.0 |  0.00
Comm    | 0.34432    | 0.34432    | 0.34432    |   0.0 |  2.82
Output  | 0.011863   | 0.011863   | 0.011863   |   0.0 |  0.10
Modify  | 3.9405     | 3.9405     | 3.9405     |   0.0 | 32.28
Other   |            | 0.3401     |            |       |  2.79

Nlocal:          62500 ave       62500 max       62500 min
Histogram: 1 0 0 0 0 0 0 0 0 0
Nghost:          30096 ave       30096 max       30096 min
Histogram: 1 0 0 0 0 0 0 0 0 0
Neighs:              0 ave           0 max           0 min
Histogram: 1 0 0 0 0 0 0 0 0 0

Total # of neighbors = 0
Ave neighs/atom = 0
Neighbor list builds = 1
Dangerous builds = 0
=== Phase 3: Tension ===


---------------------------------------------------------------------
      Device Time Info (average): 
---------------------------------------------------------------------
Data Transfer:   3.8730 s.
Neighbor copy:   0.0001 s.
Neighbor build:  0.0007 s.
Force calc:      2.3069 s.
Device Overhead: 0.0583 s.
CPU Neighbor:    0.0032 s.
CPU Cast/Pack:   1.3unfix eq

print '=== Phase 3: Tension ==='
=== Phase 3: Tension ===
reset_timestep 0

# 初期z寸法の記録
variable tmp equal lz
variable lz0 equal ${tmp}
variable lz0 equal 102.366777594746
variable tmp delete

# z軸変形 + x,yゼロ圧力（Poisson収縮を許容）
fix deform_fix all deform 1 z erate 0.0005 remap x
fix npt_fix all npt temp 300.0 300.0 0.1 x 0.0 0.0 1.0 y 0.0 0.0 1.0 xy 0.0 0.0 1.0 xz 0.0 0.0 1.0 yz 0.0 0.0 1.0

# ひずみ・応力（sigma = -P [GPa]）
variable strain equal (lz-v_lz0)/v_lz0
variable stress equal -pzz/10000

# 欠陥解析用compute
# stress/atom: 単位は bar*Å³（実応力はボロノイ体積で割る必要あり）
compute peratom all stress/atom NULL
compute cna all cna/atom 3.483
compute csym all centro/atom fcc

thermo 100
thermo_style custom step temp v_strain v_stress pxx pyy pzz lx ly lz

fix out1 all print 100 "${strain} ${stress}" file stress_strain.txt screen no
dump 1 all cDone.

Neighbor list info ...
  update: every = 1 steps, delay = 10 steps, check = yes
  max neighbors/atom: 2000, page size: 100000
  master list distance cutoff = 7.55
  ghost atom cutoff = 7.55
  binsize = 3.775, bins = 28 28 28
  2 neighbor lists, perpetual/occasional/extra = 0 2 0
  (1) compute cna/atom, occasional
      attributes: full, newton on
      pair build: full/bin/atomonly
      stencil: full/bin/3d
      bin: standard
  (2) compute centro/atom, occasional
      attributes: full, newton on
      pair build: full/bin/atomonly
      stencil: full/bin/3d
      bin: standard
Setting up Verlet run ...
  Unit style    : metal
  Current step  : 0
  Time step     : 0.002
Per MPI rank memory allocation (min/avg/max) = 27.36 | 27.36 | 27.36 Mbytes
   Step          Temp         v_strain       v_stress    v_stress_drop  v_drop_from_peak      Pxx            Pyy            Pzz             Lx             Ly             Lz      
         0   300.79343      2.7764583e-16 -0.012554173    1.0408341e-17  0.012554173    129.2952      -34.91636       125.54173      102.33472      102.42321      102.36678    
       100   299.70519      0.0001        -0.015935382    0.0016906044   0.015935382    161.65669      140.94742      159.35382      102.37691      102.37463      102.37701    
       200   301.97086      0.0002         0.0028473518  -0.011394753    0             -138.66355      7.4613179     -28.473518      102.41663      102.33704      102.38725    
       300   298.94933      0.0003         0.022981496   -0.023646673    0             -107.36685     -314.60529     -229.81496      102.35123      102.39984      102.39749    
       400   300.29324      0.0004         0.020058316   -0.016578794    0.0029231799  -112.25011     -169.16115     -200.58316      102.35888      102.38021      102.40772    
       500   301.14435      0.0005         0.0048194248  -0.0011165858   0.018162071    3.2267728      193.77392     -48.194248      102.40768      102.31366      102.41796    
       600   300.12565      0.0006        -0.0035782648   0.0062409462   0.026559761    275.19156      192.32046      35.782648      102.33821      102.35728      102.4282     
       700   301.09106      0.0007         0.0081829807  -0.0048302619   0.014798515    256.0976       70.434294     -81.829807      102.30175      102.38904      102.43843    
       800   304.18173      0.0008         0.023663079   -0.018053654    0             -103.9939       26.972316     -236.63079      102.37094      102.32162      102.44867    
       900   300.47064      0.0009         0.030244839   -0.022171873    0             -157.21897      3.6146907     -302.44839      102.36963      102.31764      102.45891    
      1000   298.45504      0.001          0.032532156   -0.019950557    0              19.372189     -113.66827     -325.32156      102.3059       102.37155      102.46914    
      1100   299.29153      0.0011         0.034841085   -0.017181839    0             -35.177868     -13.099821     -348.41085      102.31486      102.36047      102.47938    
      1200   299.52531      0.0012         0.046265612   -0.02426454     0                 0.0048194248  -0.0011165858   0.018162071    3.2267728      193.77392     -48.194248      102.40768      102.31366      102.41796    
       600   300.12565      0.0006        -0.0035782648   0.0062409462   0.026559761    275.19156      192.32046      35.782648      102.33821      102.35728      102.4282     
       700   301.09106      0.0007         0.0081829807  -0.0048302619   0.014798515    256.0976       70.434294     -81.829807      102.30175      102.38904      102.43843    
       800   304.18173      0.0008         0.023663079   -0.018053654    0             -103.9939       26.972316     -236.63079      102.37094      102.32162      102.44867    
       900   300.47064      0.0009         0.030244839   -0.022171873    0             -157.21897      3.6146907     -302.44839      102.36963      102.31764      102.45891    
      1000   298.45504      0.001          0.032532156   -0.019950557    0              19.37218    102.31441      102.5408     
      1800   299.40839      0.0018         0.073576839   -0.025824213    0             -271.47632     -116.36063     -735.76839      102.32412      102.28477      102.55104    
      1900   300.61261      0.0019         0.045195649    0.0040520581   0.02838119     120.82894      38.889572     -451.95649      102.26267      102.32377      102.56127    
      2000   301.44822      0.002          0.028198734    0.020615631    0.045378105    386.55166      209.48134     -281.98734      102.2442       102.31696      102.57151    
      2100   299.70138      0.0021         0.019701282    0.027599103    0.053875557    379.65656      553.21918     -197.01282      102.30795      102.22863      102.58175    
      2200   300.56117      0.0022         0.050483067   -0.0027609363   0.023093773    133.06533      73.088076     -504.83067      102.26611      102.28345      102.59198    
      2300   301.83606      0.0023         0.099192301   -0.048356149    0             -306.09494     -491.17446     -991.92301      102.23308      102.34134      102.60222    
      2400   299.786        0.0024         0.10133214    -0.043884466    0             -471.04062     -282.30974     -1013.3214      102.31323      102.24933      102.61246    
      2500   300.62398      0.0025         0.071159822   -0.0092622009   0.030172316    6.8943805      84.93588      -711.59822      102.28123      102.24997      102.62269    
      2600   298.63578      0.0026         0.045748849    0.015027473    0.055583289    427.77421      201.81848     -457.48849      102.19273      102.31458      102.63293    
      2700   299.3551       0.0027         0.072942992   -0.012189824    0.028389147    54.580286      61.981716     -729.42992      102.24885      102.25802      102.64317    
      2800   299.37649      0.0028         0.098471275   -0.035228664    0.0028608638  -241.32309     -81.607582     -984.71275      102.27209      102.23949      102.6534     
      2900   301.20599      0.0029         0.10873456    -0.039138057    0             -170.2464      -271.46768     -1087.3456      102.22021      102.29109      102.66364    
      3000   300.72114      0.003          0.1119316     -0.033961809    0             -162.71625     -137.85861     -1119.316       102.2427       102.25443      102.67388    
      3100   299.51021      0.0031         0.083937506    0.00045590477  0.027994091    71.194061      184.1774      -839.37506      102.24926      102.21542      102.68411    
      3200   299.30501      0.0032         0.078043924    0.0091055725   0.033887673    315.15746      212.72948     -780.43924      102.21691      102.236        102.69435    
      3300   301.51625      0.0033         0.11605755    -0.027221525    0             -142.50346     -189.38944     -1160.5755      102.23806      102.23344      102.70459    
      3400   301.25911      0.0034         0.14347885    -0.050428161    0             -406.53598     -370.62587     -1434.7885      102.23985      102.22915      102.71482    
      3500   298.68036      0.0035         0.093449182    0.0018304458   0.05002967     191.4187       166.4035228664    0.0028608638  -241.32309     -81.607582     -984.71275      102.27209      102.23949      102.6534     
      2900   301.20599      0.0029         0.10873456    -0.039138057    0             -170.2464      -271.46768     -1087.3456      102.22021      102.29109      102.66364    
      3000   300.72114      0.003          0.1119316     -0.033961809    0             -162.71625     -137.85861     -1119.316       102.2427       102.25443      102.67388    
      3100   299.51021      0.0031         0.083937506    0.00045590477  0.027994091    71.194061      184.1774      -839.37506      102.24926      102.21542      102.68411    
      3200   299.30501      0.0032         0.078043924    0.0091055725   0.033887673    315.15746      212.72948     -780.43924      102.21691      102.236        102.69435    
      3300   301.51625      0.0033         0.11605755    -0.027221525    0             -142.50346     -189.38944     -116624    
      4100   300.76449      0.0041         0.11763265    -0.0030801408   0.026646717    104.22249      137.16793     -1176.3265      102.21158      102.16038      102.78648    
      4200   298.95313      0.0042         0.10740209     0.010086233    0.036877274    426.3686       139.83461     -1074.0209      102.12264      102.22949      102.79672    
      4300   299.18721      0.0043         0.13110058    -0.012107949    0.013178788   -62.056693     -6.5942876     -1311.0058      102.19281      102.1709       102.80695    
      4400   301.36887      0.0044         0.14656392    -0.027262785    0             -257.59058     -164.99821     -1465.6392      102.21686      102.14977      102.81719    
      4500   298.07385      0.0045         0.1201192      0.0018489442   0.026444728    162.08837      56.772796     -1201.192       102.14738      102.18963      102.82743    
      4600   300.69434      0.0046         0.15189169    -0.021115955    0             -154.62588     -178.5994      -1518.9169      102.16335      102.17654      102.83766    
      4700   298.84136      0.0047         0.15703272    -0.023158387    0             -285.44074     -7.1518759     -1570.3272      102.20811      102.12023      102.8479     
      4800   299.24519      0.0048         0.12753683     0.0046632425   0.029495883    369.17677      199.77235     -1275.3683      102.11796      102.17501      102.85814    
      4900   299.93476      0.0049         0.125034       0.006530376    0.031998721    218.57892      158.47287     -1250.34        102.12254      102.16901      102.86837    
      5000   301.6949       0.005          0.17209734    -0.036456235    0             -301.03898     -131.53361     -1720.9734      102.18927      102.11684      102.87861    
      5100   300.18884      0.0051         0.17979497    -0.037937637    0             -178.63251     -239.29055     -1797.9497      102.14002      102.15712      102.88885    
      5200   297.49354      0.0052         0.16842661    -0.020466824    0.011368362   -2.0819839     -171.89848     -1684.2661      102.0931       102.18852      102.89908    
      5300   300.04582      0.0053         0.17282474    -0.020692539    0.0069702312  -207.59514     -92.597249     -1728.2474      102.16092      102.11613      102.90932    
      5400   300.74671      0.0054         0.14989831     0.0025673276   0.029896658    131.84802      291.3632      -1498.9831      102.15797      102.08622      102.91956    
      5500   299.00691      0.0055         0.11378846     0.038044109    0.066006513    624.3893       525.38302     -1137.8846      102.05759      102.14862      102.92979    
      5600   300.69542      0.0056         0.16923318    -0.015666465    0.010561791    130.76911     -59.991229     -1692.3318      102.08078      102.15485      102.94003    
      5700   300.36557      0.0057         0.207823      -0.049177257    0             -376.59221     -242.39526     -2078.23        102.15781      102.08967      102.95027    
      5800   298.57303      0.0058         0.2006983     -0.034736408    0.0071247026  -177.73222     -193.87504     -2006.983         -178.63251     -239.29055     -1797.9497      102.14002      102.15712      102.88885    
      5200   297.49354      0.0052         0.16842661    -0.020466824    0.011368362   -2.0819839     -171.89848     -1684.2661      102.0931       102.18852      102.89908    
      5300   300.04582      0.0053         0.17282474    -0.020692539    0.0069702312  -207.59514     -92.597249     -1728.2474      102.16092      102.11613      102.90932    
      5400   300.74671      0.0054         0.14989831     0.0025673276   0.029896658    131.84802      291.3632      -1498.9831      102.15797      102.08622      102.91956    
      5500   299.00691      0.0055         0.11378846     0.038044109    0.066006513    624.3893       525.38302     -1137.8846      102.05759      102.14862      102.92979    
      5600   300.69542      0.0056         0.16923318    -0.015666465    0.010561791    130.76911     -59.991229     -1692.3318      102.08078    81218      0.0064         0.22077071    -0.036737867    0             -216.20822     -274.0234      -2207.7071      102.09191      102.08662      103.02192    
      6500   301.56609      0.0065         0.2328586     -0.036918748    0             -358.66022     -305.88779     -2328.586       102.10438      102.07656      103.03216    
      6600   301.90776      0.0066         0.22959606    -0.027619921    0.003262539   -215.13827     -231.61144     -2295.9606      102.06912      102.08921      103.0424     
      6700   300.0788       0.0067         0.17563671     0.023120801    0.057221889    442.81519      370.7315      -1756.3671      102.03003      102.07834      103.05264    
      6800   301.97422      0.0068         0.15949851     0.035139029    0.073360097    592.64619      677.5732      -1594.9851      102.0677       102.01973      103.06287    
      6900   301.50531      0.0069         0.19958515    -0.0057585947   0.033273453    122.14747      169.2915      -1995.8515      102.07857      102.02219      103.07311    
      7000   299.55488      0.007          0.24108315    -0.042549777    0             -233.02581     -282.83924     -2410.8315      102.03996      102.07752      103.08335    
      7100   298.23699      0.0071         0.2519622     -0.044088412    0             -278.40261     -354.10167     -2519.622       102.05424      102.06627      103.09358    
      7200   299.83812      0.0072         0.25747863    -0.039598383    0             -358.67064     -169.2773      -2574.7863      102.11254      102.00106      103.10382    
      7300   300.68055      0.0073         0.22613809    -0.0066773068   0.031340541    84.455833      79.005238     -2261.3809      102.0321       102.04168      103.11406    
      7400   301.19824      0.0074         0.19059355     0.025849516    0.06688508     611.9735       401.03575     -1905.9355      101.9586       102.07829      103.12429    
      7500   299.08324      0.0075         0.21260091     0.0018163855   0.044877719    163.24628      259.95757     -2126.0091      102.04276      101.9982       103.13453    
      7600   298.89412      0.0076         0.27356093    -0.05474715     0             -433.29025     -218.63885     -2735.6093      102.07306      101.9972       103.14477    
      7700   300.12259      0.0077         0.27026754    -0.041990679    0.0032933882  -157.5068      -362.49494     -2702.6754      101.98947      102.06856      103.155      
      7800   299.45037      0.0078         0.25191338    -0.014395028    0.021647552   -49.856477     -88.455241     -2519.1338      102.01514      102.01989      103.16524    
      7900   301.85715      0.0079         0.25413822    -0.011164559    0.019422714   -126.05283     -3.2752871     -2541.3822      102.06427      101.96711      103.17548    
      8000   300.57012      0.008          0.22696275     0.014598867    0.046598179    242.34281      227.25308     -2269.6275      101.99662      102.00142      103.18571    
      8100   300.1982       0.0081         0.24437524    -0.0035723139   0.029185695    278.7735       121.69429     -2443.7524      101.94734      102.04295 75     -1905.9355      101.9586       102.07829      103.12429    
      7500   299.08324      0.0075         0.21260091     0.0018163855   0.044877719    163.24628      259.95757     -2126.0091      102.04276      101.9982       103.13453    
      7600   298.89412      0.0076         0.27356093    -0.05474715     0             -433.29025     -218.63885     -2735.6093      102.07306      101.9972       103.14477    
      7700   300.12259      0.0077         0.27026754    -0.041990679    0.0032933882  -157.5068      -362.49494     -2702.6754      101.98947      102.06856      103.155      
      7800   299.45037      0.0078         0.25191338    -0.014395028    0.021647552   -49.856477     -88.455241     -2519.1338      102.01514      102.01989      103.16524    
      7900   301.85715      0.0079         0.25413822    -0.011164559    0.019422714   -126.05283     -3.2752871     -2541.3822      102.06427      101.96711      103.1754 0.26379862    -0.0075432281   0.020388685    216.46923      160.04604     -2637.9862      101.98643      101.95045      103.25737    
      8800   299.81871      0.0088         0.28576918    -0.026128207    0             -29.518803     -181.33741     -2857.6918      101.9335       102.0048       103.26761    
      8900   299.64475      0.0089         0.29086857    -0.027554565    0             -149.94666     -63.947125     -2908.6857      101.98504      101.94781      103.27784    
      9000   299.82442      0.009          0.28841277    -0.018953766    0.0024557971  -7.7493181      34.468222     -2884.1277      101.99743      101.92378      103.28808    
      9100   300.95674      0.0091         0.29251163    -0.018238986    0             -93.11077      -64.147417     -2925.1163      101.9504       101.96287      103.29832    
      9200   300.39398      0.0092         0.28929637    -0.013113024    0.0032152577   47.200182     -120.13343     -2892.9637      101.91183      101.9846       103.30855    
      9300   298.62137      0.0093         0.28474485    -0.0080339774   0.0077667822   160.12007      288.96278     -2847.4485      101.96185      101.91162      103.31879    
      9400   300.51048      0.0094         0.26955432     0.0056932532   0.022957311    259.01852      374.02993     -2695.5432      101.973        101.88679      103.32903    
      9500   299.00011      0.0095         0.30293967    -0.023560205    0              38.479149      4.6330462     -3029.3967      101.92615      101.94381      103.33926    
      9600   301.70034      0.0096         0.33247478    -0.042437706    0             -227.48603     -386.63706     -3324.7478      101.90832      101.97273      103.3495     
      9700   299.97694      0.0097         0.32572382    -0.029494228    0.0067509572  -258.06181     -121.7565      -3257.2382      101.97334      101.88957      103.35974    
      9800   300.2045       0.0098         0.30389086    -0.0058490979   0.028583919    68.640454      134.00522     -3038.9086      101.94891      101.8863       103.36997    
      9900   298.9784       0.0099         0.29263308     0.0055851385   0.039841704    312.28651      159.06549     -2926.3308      101.87912      101.93988      103.38021    
     10000   300.24871      0.01           0.31256709    -0.011933442    0.019907691    117.26216     -1.4089193     -3125.6709      101.89305      101.9286       103.39045    
     10100   301.1654       0.0101         0.33270716    -0.028053959    0             -160.67549      68.29138      -3327.0716      101.9614       101.86004      103.40068    
     10200   298.56307      0.0102         0.31641676    -0.0090515242   0.016290396    146.83865      100.84298     -3164.1676      101.90643      101.89204      103.41092    
     10300   300.13214      0.0103         0.33054784    -0.018602301    0.0021593197  -0.9495624     -139.1742      -3305.4784      101.86594      101.93239      103.42116    
     10400   303.10202      0.0104         0.36758012    -0.045831996    0             -309.19696     -254.58539     -3675.8012      101.91925      101.88813      103.43139    
     11.97334      101.88957      103.35974    
      9800   300.2045       0.0098         0.30389086    -0.0058490979   0.028583919    68.640454      134.00522     -3038.9086      101.94891      101.8863       103.36997    
      9900   298.9784       0.0099         0.29263308     0.0055851385   0.039841704    312.28651      159.06549     -2926.3308      101.87912      101.93988      103.38021    
     10000   300.24871      0.01           0.31256709    -0.011933442    0.019907691    117.26216     -1.4089193     -3125.6709      101.89305      101.9286       103.39045    
     10100   301.1654       0.0101         0.33270716    -0.028053959    0             -160.67549      68.29138      -3327.0716      101.9614       101.86004      103.40068    
     10200   298.56307      0.0102         0.31641676    -0.0090515242   0.016290396    146.83865      100.84298     -3164.1676      101.90643      101.89204      103.41092    
     10300   300.1366    0             -14.080892     -101.78526     -3678.3117      101.82204      101.91315      103.49281    
     11100   300.94512      0.0111         0.38433901    -0.038333021    0             -209.46703     -273.69847     -3843.3901      101.85564      101.88279      103.50305    
     11200   299.40818      0.0112         0.36369758    -0.012963509    0.020641431   -163.60498      44.366737     -3636.9758      101.93161      101.78939      103.51329    
     11300   300.16534      0.0113         0.35355567    -0.00052082233  0.030783334    110.67519      76.023184     -3535.5567      101.84982      101.85613      103.52352    
     11400   300.13254      0.0114         0.37006742    -0.01678384     0.014271586    158.66899     -103.80848     -3700.6742      101.76842      101.92549      103.53376    
     11500   299.82768      0.0115         0.38360478    -0.024222478    0.00073422288 -126.76992     -41.43491      -3836.0478      101.86774      101.82015      103.544      
     11600   300.79799      0.0116         0.37115445    -0.0094377998   0.013184558   -30.605445      139.77402     -3711.5445      101.89857      101.77965      103.55423    
     11700   300.97257      0.0117         0.37223736    -0.007322517    0.01210165     138.32541      19.608621     -3722.3736      101.80759      101.86085      103.56447    
     11800   298.74447      0.0118         0.38542778    -0.016277228    0              3.2804679     -133.54262     -3854.2778      101.7927       101.86712      103.57471    
     11900   300.15632      0.0119         0.3998535     -0.024676625    0             -213.44044     -95.566913     -3998.535       101.86586      101.7921       103.58494    
     12000   302.41313      0.012          0.38931877    -0.011993135    0.01053473    -9.1200915     -11.572163     -3893.1877      101.85241      101.79032      103.59518    
     12100   298.58069      0.0121         0.3821691     -0.0050604572   0.017684399    206.97105      211.26886     -3821.691       101.79498      101.82884      103.60542    
     12200   300.50227      0.0122         0.40718791    -0.025730238    0             -15.302154     -251.51992     -4071.8791      101.77605      101.85181      103.61565    
     12300   300.79145      0.0123         0.43958135    -0.049521107    0             -493.46253     -349.72995     -4395.8135      101.87001      101.75991      103.62589    
     12400   300.26123      0.0124         0.38715891     0.0046104775   0.052422436    152.98307      312.29963     -3871.5891      101.83159      101.76036      103.63613    
     12500   299.81835      0.0125         0.37620982     0.014820069    0.063371523    518.00514      264.1293      -3762.0982      101.6968       101.87217      103.64636    
     12600   301.54916      0.0126         0.40152054    -0.0074540373   0.038060808    151.65695      55.699213     -4015.2054      101.74496      101.83         103.6566     
     12700   300.33056      0.0127         0.42105467    -0.022106432    0.018526682   -169.04737      115.89908     -4210.5467      101.86721      101.7143       103.66684    
     12800   299.13671      0.0   103.59518    
     12100   298.58069      0.0121         0.3821691     -0.0050604572   0.017684399    206.97105      211.26886     -3821.691       101.79498      101.82884      103.60542    
     12200   300.50227      0.0122         0.40718791    -0.025730238    0             -15.302154     -251.51992     -4071.8791      101.77605      101.85181      103.61565    
     12300   300.79145      0.0123         0.43958135    -0.049521107    0             -493.46253     -349.72995     -4395.8135      101.87001      101.75991      103.62589    
     12400   300.26123      0.0124         0.38715891     0.0046104775   0.052422436    152.98307      312.29963     -3871.5891      101.83159      101.76036      103.63613    
     12500   299.81835      0.0125         0.37620982     0.014820069    0.063371523    518.00514      264.1293      -3762.0982      101.6968       101.87217      103.64636    
     12600   301.54916      0.0126         027386     -264.68595     -4540.3752      101.71397      101.82063      103.72826    
     13400   299.30556      0.0134         0.43711642    -0.019057943    0.016921096   -75.854875      71.731706     -4371.1642      101.79025      101.72509      103.73849    
     13500   300.63869      0.0135         0.43114149    -0.0075898485   0.022896024    91.974511      188.06335     -4311.4149      101.78513      101.70307      103.74873    
     13600   301.46268      0.0136         0.4454906     -0.01754195     0.0085469154   161.18974     -33.984927     -4454.906       101.68356      101.80034      103.75897    
     13700   300.91667      0.0137         0.43410498    -0.0048513      0.019932534    375.22363      84.415963     -4341.0498      101.67516      101.79536      103.7692     
     13800   298.84704      0.0138         0.44127924    -0.010284759    0.012758279   -104.0914       257.50045     -4412.7924      101.83759      101.62806      103.77944    
     13900   298.96414      0.0139         0.4650357     -0.030522541    0             -137.36723     -64.351311     -4650.357       101.75026      101.71169      103.78968    
     14000   299.88213      0.014          0.46216493    -0.022792393    0.002870775    81.701787     -168.73913     -4621.6493      101.63845      101.81975      103.79991    
     14100   301.72507      0.0141         0.45356265    -0.008187603    0.011473054    29.253396      28.711698     -4535.6265      101.71872      101.72434      103.81015    
     14200   299.01138      0.0142         0.44416516     0.0026447081   0.020870541    134.95398      264.32813     -4441.6516      101.77042      101.6516       103.82039    
     14300   299.74336      0.0143         0.48089747    -0.031401608    0             -54.19954      -38.360933     -4808.9747      101.7048       101.72464      103.83062    
     14400   300.05165      0.0144         0.48622747    -0.031820504    0              4.148159      -293.143       -4862.2747      101.65388      101.77274      103.84086    
     14500   299.52439      0.0145         0.4748372     -0.016060663    0.01139027    -69.674883      32.600933     -4748.372       101.74028      101.67231      103.8511     
     14600   300.03189      0.0146         0.48685513    -0.023942137    0             -137.47938      38.598408     -4868.5513      101.74375      101.65719      103.86133    
     14700   300.23007      0.0147         0.47762265    -0.010357885    0.0092324853   177.50073     -0.36365251    -4776.2265      101.65084      101.73161      103.87157    
     14800   300.44003      0.0148         0.46969765     0.0004089491   0.017157478    254.92022      203.70405     -4696.9765      101.66475      101.70833      103.88181    
     14900   298.70789      0.0149         0.49386228    -0.020873017    0             -145.70857     -0.0040625918  -4938.6228      101.74446      101.63574      103.89204    
     15000   299.98727      0.015          0.54123649    -0.060340074    0             -482.87243     -481.11965     -5412.3649      101.71357      101.6777       103.90228    
     15100   300.21724      0.0151         0.52393555   00   300.05165      0.0144         0.48622747    -0.031820504    0              4.148159      -293.143       -4862.2747      101.65388      101.77274      103.84086    
     14500   299.52439      0.0145         0.4748372     -0.016060663    0.01139027    -69.674883      32.600933     -4748.372       101.74028      101.67231      103.8511     
     14600   300.03189      0.0146         0.48685513    -0.023942137    0             -137.47938      38.598408     -4868.5513      101.74375      101.65719      103.86133    
     14700   300.23007      0.0147         0.47762265    -0.010357885    0.0092324853   177.50073     -0.36365251    -4776.2265      101.65084      101.73161      103.87157    
     14800   300.44003      0.0148         0.46969765     0.0004089491   0.017157478    254.92022      203.70405     -4696.9765      101.66475      101.70833      103.88181    
     14900   298.70789      0.0149         0.49386228    -0.020873017-5363.0076      101.64012      101.6812       103.9637     
     15700   301.66334      0.0157         0.5433864     -0.036276143    0             -388.78438     -187.0116      -5433.864       101.72361      101.59491      103.97394    
     15800   300.55226      0.0158         0.52213129    -0.0097776708   0.021255108   -53.852284      25.294522     -5221.3129      101.67462      101.6103       103.98417    
     15900   300.58589      0.0159         0.4799598      0.031003574    0.063426601    622.26455      485.97431     -4799.598       101.56821      101.67827      103.99441    
     16000   301.941        0.016          0.48545528     0.01992997     0.057931117    442.65735      444.96297     -4854.5528      101.58175      101.66644      104.00465    
     16100   302.24631      0.0161         0.54181749    -0.034644047    0.0015689063  -89.368869     -84.110493     -5418.1749      101.63957      101.62956      104.01488    
     16200   300.75455      0.0162         0.54503699    -0.030274361    0             -78.49196       11.783681     -5450.3699      101.64401      101.60976      104.02512    
     16300   299.03835      0.0163         0.54551404    -0.022722298    0              5.3010783     -20.261361     -5455.1404      101.5998       101.64392      104.03536    
     16400   300.63108      0.0164         0.56309724    -0.034683647    0             -162.27579     -211.76957     -5630.9724      101.59542      101.65367      104.04559    
     16500   299.58021      0.0165         0.55561217    -0.023781026    0.0074850693  -93.297475     -70.193992     -5556.1217      101.62228      101.60954      104.05583    
     16600   300.81498      0.0166         0.52712583     0.0037878244   0.035971413    279.33281      420.14096     -5271.2583      101.65467      101.54279      104.06607    
     16700   301.08153      0.0167         0.52357718     0.0053555516   0.039520062    389.38271      453.01001     -5235.7718      101.60783      101.56773      104.0763     
     16800   301.38418      0.0168         0.56282617    -0.029823949    0.00027107326  198.25321     -159.7027      -5628.2617      101.50981      101.68454      104.08654    
     16900   299.31774      0.0169         0.59158472    -0.047420011    0             -273.6228      -148.35928     -5915.8472      101.61237      101.59512      104.09678    
     17000   299.02098      0.017          0.59244657    -0.037582731    0             -331.59955     -119.95806     -5924.4657      101.68462      101.51781      104.10701    
     17100   299.40024      0.0171         0.60355901    -0.042521016    0             -339.22421     -322.95492     -6035.5901      101.58796      101.59998      104.11725    
     17200   300.77398      0.0172         0.57945337    -0.014973738    0.024105639    136.23341     -163.64786     -5794.5337      101.49194      101.67157      104.12749    
     17300   301.14049      0.0173         0.55582188     0.009688537    0.047737131    309.95804      261.9582      -5558.2188      101.5735       101.56616      104.13772    
     17400   301.20772      0.0174         0.5735376     -0.0069831517   0.0300217         0.52357718     0.0053555516   0.039520062    389.38271      453.01001     -5235.7718      101.60783      101.56773      104.0763     
     16800   301.38418      0.0168         0.56282617    -0.029823949    0.00027107326  198.25321     -159.7027      -5628.2617      101.50981      101.68454      104.08654    
     16900   299.31774      0.0169         0.59158472    -0.047420011    0             -273.6228      -148.35928     -5915.8472      101.61237      101.59512      104.09678    
     17000   299.02098      0.017          0.59244657    -0.037582731    0             -331.59955     -119.95806     -5924.4657      101.68462      101.51781      104.10701    
     17100   299.40024      0.0171         0.60355901    -0.042521016    0             -339.22421     -322.95492     -6035.5901      101.58796      101.59998      104.11725    
     17200   300.77398      0.0172         0.57945337    -0.014973738    0.024105639    136.23      101.56358      104.19914    
     18000   300.29948      0.018          0.57120045     0.014557753    0.047916796    403.64015      381.98291     -5712.0045      101.53228      101.53306      104.20938    
     18100   298.56534      0.0181         0.59345708    -0.0087090682   0.025660168    124.48931      299.45872     -5934.5708      101.59552      101.47079      104.21962    
     18200   300.38746      0.0182         0.64684231    -0.055355405    0             -351.32296     -421.79225     -6468.4231      101.54286      101.5552       104.22985    
     18300   301.10309      0.0183         0.68455911    -0.080198483    0             -654.65593     -870.45729     -6845.5911      101.49566      101.61211      104.24009    
     18400   299.17042      0.0184         0.63339204    -0.023045968    0.051167071   -153.11226     -66.409009     -6333.9204      101.54557      101.50957      104.25033    
     18500   299.18763      0.0185         0.57624403     0.034082082    0.10831508     449.80423      569.9964      -5762.4403      101.5521       101.46011      104.26056    
     18600   300.41046      0.0186         0.58042187     0.028785806    0.10413724     526.37036      498.24834     -5804.2187      101.48883      101.5182       104.2708     
     18700   298.77973      0.0187         0.63668494    -0.025720499    0.047874171    23.804344     -159.35698     -6366.8494      101.4598       101.5675       104.28104    
     18800   299.54176      0.0188         0.68474515    -0.066275656    0             -547.66412     -505.20662     -6847.4515      101.53542      101.51391      104.29127    
     18900   300.80693      0.0189         0.67083735    -0.042998923    0.013907797   -446.95652     -324.45737     -6708.3735      101.55319      101.47887      104.30151    
     19000   300.31006      0.019          0.63449845    -0.00033021399  0.050246706    168.5341       44.86676      -6344.9845      101.48041      101.5123       104.31175    
     19100   299.85242      0.0191         0.61342521     0.022739837    0.071319944    330.18789      322.7863      -6134.2521      101.47236      101.49202      104.32198    
     19200   301.20554      0.0192         0.61973144     0.013722514    0.065013707    307.881        452.6877      -6197.3144      101.51368      101.44641      104.33222    
     19300   301.73258      0.0193         0.64349345    -0.01414606     0.041251699    155.23775      113.98836     -6434.9345      101.51663      101.45379      104.34246    
     19400   300.86767      0.0194         0.68728372    -0.052547156    0             -351.84976     -334.74812     -6872.8372      101.49328      101.48676      104.35269    
     19500   299.02157      0.0195         0.68965254    -0.043575129    0             -319.07534     -416.21062     -6896.5254      101.45281      101.52172      104.36293    
     19600   300.80886      0.0196         0.6617528     -0.0075422976   0.027899737    6.868572       69.73628      -6617.528       101.47457      101.46949      104.37317    
     19700   300.10376      0.0197         0.62623612     0.026929507    0.063416425    507.65647      5470.00033021399  0.050246706    168.5341       44.86676      -6344.9845      101.48041      101.5123       104.31175    
     19100   299.85242      0.0191         0.61342521     0.022739837    0.071319944    330.18789      322.7863      -6134.2521      101.47236      101.49202      104.32198    
     19200   301.20554      0.0192         0.61973144     0.013722514    0.065013707    307.881        452.6877      -6197.3144      101.51368      101.44641      104.33222    
     19300   301.73258      0.0193         0.64349345    -0.01414606     0.041251699    155.23775      113.98836     -6434.9345      101.51663      101.45379      104.34246    
     19400   300.86767      0.0194         0.68728372    -0.052547156    0             -351.84976     -334.74812     -6872.8372      101.49328      101.48676      104.35269    
     19500   299.02157      0.0195         0.68965254    -0.043575129    0             -319.07534     -416.21062     -643459    
     20300   299.19207      0.0203         0.6685758      0.01051016     0.052456044    349.16538      287.62825     -6685.758       101.40572      101.4591       104.44482    
     20400   300.78387      0.0204         0.67631888     0.0016705896   0.044712957    169.07041      162.44077     -6763.1888      101.43087      101.43375      104.45506    
     20500   301.2609       0.0205         0.7259031     -0.044288573    0             -268.68574     -198.06051     -7259.031       101.43984      101.43763      104.4653     
     20600   299.4975       0.0206         0.71741846    -0.030237362    0.0084846453  -89.756474     -209.58788     -7174.1846      101.41296      101.44797      104.47553    
     20700   299.77985      0.0207         0.69896358    -0.0045097389   0.026939522    46.119558      28.204088     -6989.6358      101.4197       101.42532      104.48577    
     20800   301.70613      0.0208         0.70180126    -0.00056268748  0.024101841    17.172577      114.80381     -7018.0126      101.43773      101.39823      104.49601    
     20900   301.14679      0.0209         0.69336834     0.0084355347   0.032534762    233.21467      233.26255     -6933.6834      101.41487      101.39677      104.50624    
     21000   300.19183      0.021          0.69472534     0.0044478865   0.031177764    374.33596      279.20749     -6947.2534      101.38272      101.41443      104.51648    
     21100   300.86309      0.0211         0.72699895    -0.027081412    0             -15.525376     -32.884827     -7269.9895      101.40979      101.39971      104.52672    
     21200   299.57745      0.0212         0.75116306    -0.045639384    0             -338.71866     -236.36398     -7511.6306      101.44293      101.38289      104.53695    
     21300   298.509        0.0213         0.78482649    -0.067677747    0             -534.39466     -571.74763     -7848.2649      101.41733      101.41074      104.54719    
     21400   300.46217      0.0214         0.76499318    -0.038976999    0.019833318   -273.98888     -289.40353     -7649.9318      101.37416      101.42225      104.55743    
     21500   300.11593      0.0215         0.71141319     0.013153995    0.073413303    363.80888      370.75239     -7114.1319      101.3537       101.39607      104.56766    
     21600   299.84102      0.0216         0.68977387     0.032028858    0.095052625    482.90902      575.84947     -6897.7387      101.36242      101.37343      104.5779     
     21700   298.1124       0.0217         0.74115733    -0.015135227    0.043669166    56.259829      74.764525     -7411.5733      101.36217      101.38922      104.58814    
     21800   300.32658      0.0218         0.78244848    -0.048361654    0.0023780171  -279.42032     -386.21929     -7824.4848      101.36228      101.40242      104.59837    
     21900   300.24591      0.0219         0.7778457     -0.035311145    0.0069807894  -289.37073     -343.0226      -7778.457       101.36981      101.38854      104.60861    
     22000   299.82391      0.022          0.74775696     8.0763447e-05  0.037069536    43.241339      117.03573     -7477.5696        -534.39466     -571.74763     -7848.2649      101.41733      101.41074      104.54719    
     21400   300.46217      0.0214         0.76499318    -0.038976999    0.019833318   -273.98888     -289.40353     -7649.9318      101.37416      101.42225      104.55743    
     21500   300.11593      0.0215         0.71141319     0.013153995    0.073413303    363.80888      370.75239     -7114.1319      101.3537       101.39607      104.56766    
     21600   299.84102      0.0216         0.68977387     0.032028858    0.095052625    482.90902      575.84947     -6897.7387      101.36242      101.37343      104.5779     
     21700   298.1124       0.0217         0.74115733    -0.015135227    0.043669166    56.259829      74.764525     -7411.5733      101.36217      101.38922      104.58814    
     21800   300.32658      0.0218         0.78244848    -0.048361654    0.0023780171  -279.42032     -386.21929     -7824.4848      101.36228  1.22768      0.0226         0.80972248    -0.042001822    0             -270.54946     -314.25117     -8097.2248      101.33548      101.35453      104.68027    
     22700   300.9317       0.0227         0.80403078    -0.030022774    0.005691702   -283.74926     -206.2313      -8040.3078      101.35786      101.33016      104.6905     
     22800   300.52938      0.0228         0.76890623     0.0037475475   0.040816248    239.99702      221.73385     -7689.0623      101.3218       101.3233       104.70074    
     22900   298.35455      0.0229         0.76462089     0.0067104106   0.045101593    287.58112      284.03945     -7646.2089      101.29763      101.33287      104.71098    
     23000   301.19921      0.023          0.79149652    -0.015791266    0.018225959    7.3600762      22.817635     -7914.9652      101.31639      101.32144      104.72121    
     23100   300.57559      0.0231         0.80718112    -0.025912397    0.002541361   -72.193295     -53.513593     -8071.8112      101.34281      101.29565      104.73145    
     23200   299.04175      0.0232         0.81425027    -0.028273446    0             -201.85182     -163.02932     -8142.5027      101.34391      101.29581      104.74169    
     23300   300.6108       0.0233         0.83369702    -0.041141051    0             -299.78784     -302.71817     -8336.9702      101.3086       101.31956      104.75192    
     23400   300.8246       0.0234         0.79195351     0.0037631637   0.041743504    171.60174      188.57879     -7919.5351      101.27807      101.31425      104.76216    
     23500   300.55976      0.0235         0.77112996     0.024568917    0.062567054    497.84372      444.48399     -7711.2996      101.27226      101.29956      104.7724     
     23600   300.50606      0.0236         0.82070205    -0.023905217    0.012994963    2.3354374     -7.9508791     -8207.0205      101.29553      101.28881      104.78263    
     23700   300.12805      0.0237         0.85190324    -0.050319159    0             -314.15546     -316.91113     -8519.0324      101.3109       101.28332      104.79287    
     23800   298.18968      0.0238         0.82767602    -0.020214959    0.024227221   -36.038507     -60.409342     -8276.7602      101.29552      101.27908      104.80311    
     23900   298.99203      0.0239         0.82858379    -0.014726436    0.023319454    127.63543      119.68878     -8285.8379      101.27472      101.26876      104.81334    
     24000   299.60309      0.024          0.83054732    -0.01278489     0.021355921    77.196547      20.864914     -8305.4732      101.28752      101.25782      104.82358    
     24100   300.01838      0.0241         0.8477613     -0.025940855    0.0041419382  -45.047357     -13.193985     -8477.613       101.30385      101.24511      104.83382    
     24200   300.28089      0.0242         0.84528456    -0.020360683    0.0066186808  -71.868966     -165.47845     -8452.8456      101.26918      101.27649      104.84405    
     24300   299.80312      0.0243         0.87670954    -0.047484409    0             -301.23224     -323.12001     -8767.0954      101.27084      101.27088791     -8207.0205      101.29553      101.28881      104.78263    
     23700   300.12805      0.0237         0.85190324    -0.050319159    0             -314.15546     -316.91113     -8519.0324      101.3109       101.28332      104.79287    
     23800   298.18968      0.0238         0.82767602    -0.020214959    0.024227221   -36.038507     -60.409342     -8276.7602      101.29552      101.27908      104.80311    
     23900   298.99203      0.0239         0.82858379    -0.014726436    0.023319454    127.63543      119.68878     -8285.8379      101.27472      101.26876      104.81334    
     24000   299.60309      0.024          0.83054732    -0.01278489     0.021355921    77.196547      20.864914     -8305.4732      101.28752      101.25782      104.82358    
     24100   300.01838      0.0241         0.8477613     -0.025940855    0.0041419382  -45.047357     -13.193985     -8477.613       101.30385      101.24511      104.83   0.86791283    -0.013763754    0.0087967074   13.14923       26.272683     -8679.1283      101.21551      101.25494      104.91571    
     25000   301.30209      0.025          0.87729888    -0.018474648    0              6.1618222     -57.257801     -8772.9888      101.22322      101.24117      104.92595    
     25100   299.51298      0.0251         0.88337072    -0.020985543    0             -78.990876      2.5207209     -8833.7072      101.25826      101.19448      104.93618    
     25200   301.00735      0.0252         0.89117128    -0.024197437    0             -90.213027     -94.820287     -8911.7128      101.22065      101.2281       104.94642    
     25300   302.18467      0.0253         0.88421176    -0.016487692    0.0069595236   50.524712     -57.001707     -8842.1176      101.17078      101.26489      104.95666    
     25400   300.23617      0.0254         0.86812646     0.00097421934  0.023044827    292.39616      211.4216      -8681.2646      101.19477      101.21675      104.96689    
     25500   301.08458      0.0255         0.88187488    -0.0084900009   0.0092964039   51.180177      233.41688     -8818.7488      101.2599       101.14152      104.97713    
     25600   301.7875       0.0256         0.88940649    -0.012771534    0.0017647938   67.089277      61.295373     -8894.0649      101.21185      101.18878      104.98737    
     25700   299.55687      0.0257         0.87473319     0.0030914862   0.016438094    292.26295      121.99886     -8747.3319      101.15268      101.23592      104.9976     
     25800   299.07557      0.0258         0.92332411    -0.039181053    0             -186.37194     -199.67817     -9233.2411      101.2089       101.18862      105.00784    
     25900   300.36341      0.0259         0.95002149    -0.05766756     0             -536.29513     -338.79206     -9500.2149      101.2597       101.1455       105.01808    
     26000   300.89475      0.026          0.90073804    -0.0060402025   0.049283441    147.36498      56.655717     -9007.3804      101.17952      101.19123      105.02831    
     26100   299.71508      0.0261         0.88181864     0.012723994    0.068202845    482.54934      386.91539     -8818.1864      101.13139      101.20256      105.03855    
     26200   300.839        0.0262         0.89379938     0.0010060666   0.056222109    291.59086      310.13386     -8937.9938      101.18082      101.15092      105.04879    
     26300   301.12458      0.0263         0.92827322    -0.02906163     0.021748267   -63.749188      34.665528     -9282.7322      101.23453      101.11686      105.05902    
     26400   300.07088      0.0264         0.95092517    -0.043433706    0             -235.17068     -203.79528     -9509.2517      101.18562      101.16554      105.06926    
     26500   299.85361      0.0265         0.94529297    -0.031459702    0.0056321952  -23.645467     -267.70881     -9452.9297      101.1014       101.23311      105.0795     
     26600   300.51996      0.0266         0.92931041    -0.011486744    0.021614761    84.250326      104.39415     -9293.1041      101.1462       101.17031      105.08973    
    101.2597       101.1455       105.01808    
     26000   300.89475      0.026          0.90073804    -0.0060402025   0.049283441    147.36498      56.655717     -9007.3804      101.17952      101.19123      105.02831    
     26100   299.71508      0.0261         0.88181864     0.012723994    0.068202845    482.54934      386.91539     -8818.1864      101.13139      101.20256      105.03855    
     26200   300.839        0.0262         0.89379938     0.0010060666   0.056222109    291.59086      310.13386     -8937.9938      101.18082      101.15092      105.04879    
     26300   301.12458      0.0263         0.92827322    -0.02906163     0.021748267   -63.749188      34.665528     -9282.7322      101.23453      101.11686      105.05902    
     26400   300.07088      0.0264         0.95092517    -0.043433706    0             -235.17068     -203.79528     -9509.2517      101.18562      101.16554      105.06926    
     26500   299.69228   0.043852815    16.852732      421.5554      -9430.1502      101.22104      101.03198      105.15115    
     27300   300.33019      0.0273         0.93330873     0.018596764    0.053559105    554.27103      292.16101     -9333.0873      101.04387      101.19391      105.16139    
     27400   300.10212      0.0274         0.95541794    -0.0030631704   0.031449894    290.77023     -68.141559     -9554.1794      101.01255      101.2283       105.17163    
     27500   299.53797      0.0275         0.97341137    -0.018244762    0.013456462   -19.352467      9.2524301     -9734.1137      101.14413      101.09823      105.18186    
     27600   299.14513      0.0276         0.98654137    -0.025651666    0.00032646136 -250.95758      22.259668     -9865.4137      101.17921      101.05626      105.1921     
     27700   300.73739      0.0277         1.0042518     -0.037379501    0             -140.93417     -206.3073      -10042.518      101.08458      101.14562      105.20234    
     27800   300.24879      0.0278         0.99228079    -0.022764462    0.011971052    92.418078     -126.66493     -9922.8079      101.04263      101.1769       105.21257    
     27900   299.15816      0.0279         0.98232491    -0.010075916    0.021926931    61.274218      137.18302     -9823.2491      101.10685      101.09208      105.22281    
     28000   299.77089      0.028          0.99854191    -0.022945738    0.0057099332  -45.050142      45.819916     -9985.4191      101.14626      101.04463      105.23305    
     28100   300.99858      0.0281         0.99759297    -0.020924282    0.0066588766   21.217187      99.827305     -9975.9297      101.12122      101.06493      105.24328    
     28200   299.15967      0.0282         0.98488514    -0.0040294462   0.019366699    338.21271      94.185297     -9848.8514      101.01864      101.15142      105.25352    
     28300   298.74774      0.0283         1.0353021     -0.044247031    0             -158.56381     -275.30067     -10353.021      101.05758      101.12402      105.26376    
     28400   301.1317       0.0284         1.0496748     -0.049194103    0             -557.27945     -334.28979     -10496.748      101.18116      101.00803      105.27399    
     28500   298.9964       0.0285         1.0218535     -0.016528608    0.027821278   -94.108813      10.520986     -10218.535      101.1142       101.04231      105.28423    
     28600   298.16679      0.0286         0.99781838     0.0086342528   0.051856437    479.2565       208.01001     -9978.1838      100.95654      101.16127      105.29447    
     28700   300.67631      0.0287         1.0055467      0.0010354403   0.044128141    236.57424      150.68049     -10055.467      100.99951      101.11945      105.3047     
     28800   300.78913      0.0288         1.0200967     -0.010732982    0.029578128    89.575308      188.10313     -10200.967      101.11445      101.00469      105.31494    
     28900   299.65935      0.0289         1.0527171     -0.036314159    0             -328.6893      -60.503535     -10527.171      101.12635      100.99899      105.32518    
     29000   299.44019      0     105.25352    
     28300   298.74774      0.0283         1.0353021     -0.044247031    0             -158.56381     -275.30067     -10353.021      101.05758      101.12402      105.26376    
     28400   301.1317       0.0284         1.0496748     -0.049194103    0             -557.27945     -334.28979     -10496.748      101.18116      101.00803      105.27399    
     28500   298.9964       0.0285         1.0218535     -0.016528608    0.027821278   -94.108813      10.520986     -10218.535      101.1142       101.04231      105.28423    
     28600   298.16679      0.0286         0.99781838     0.0086342528   0.051856437    479.2565       208.01001     -9978.1838      100.95654      101.16127      105.29447    
     28700   300.67631      0.0287         1.0055467      0.0010354403   0.044128141    236.57424      150.68049     -10055.467      100.99951      101.11945      105.3047     
     28800   300.78913      0.0288        1.04585     -275.83403     -10840.122      101.00541      101.07357      105.3866     
     29600   299.81241      0.0296         1.0373955      0.0087928387   0.046673227    324.17616      177.54281     -10373.955      100.99454      101.04232      105.39683    
     29700   301.29237      0.0297         1.0212864      0.026475941    0.062782356    394.55212      599.14155     -10212.864      101.06901      100.95161      105.40707    
     29800   299.60547      0.0298         1.0563426     -0.0049556341   0.027726193    94.95682       217.44313     -10563.426      101.04561      100.98127      105.41731    
     29900   301.21841      0.0299         1.1081075     -0.051181544    0             -279.99864     -415.37448     -11081.075      100.96514      101.08249      105.42754    
     30000   299.61808      0.03           1.1157469     -0.054003814    0             -322.40464     -453.6807      -11157.469      100.9708       101.07508      105.43778    
     30100   297.98241      0.0301         1.0882816     -0.02041291     0.027465318   -96.864171     -0.46939418    -10882.816      101.05538      100.9668       105.44802    
     30200   299.5545       0.0302         1.0921169     -0.017805977    0.023630047   -118.58903     -11.641552     -10921.169      101.0834       100.92281      105.45825    
     30300   299.90177      0.0303         1.0905956     -0.01280021     0.025151325    73.714067      65.369002     -10905.956      100.99756      100.98819      105.46849    
     30400   301.91424      0.0304         1.0708474      0.0056258326   0.0448995      329.56961      135.92455     -10708.474      100.92774      101.04305      105.47873    
     30500   300.17187      0.0305         1.0928955     -0.015533928    0.022851402    56.4013        74.953197     -10928.955      100.99116      100.98075      105.48896    
     30600   299.51834      0.0306         1.1120606     -0.027232517    0.0036863032  -204.12453     -117.31055     -11120.606      101.05049      100.92603      105.4992     
     30700   299.72062      0.0307         1.1137423     -0.019668554    0.002004681   -138.3909       33.394185     -11137.423      101.03021      100.93579      105.50944    
     30800   298.5321       0.0308         1.0934887      0.0042995992   0.02225822     212.35394      166.04418     -10934.887      100.94402      100.99398      105.51967    
     30900   298.06272      0.0309         1.1206134     -0.021574531    0              22.789882     -83.889231     -11206.134      100.93738      101.00091      105.52991    
     31000   301.99606      0.031          1.145161      -0.043180665    0             -285.14657     -214.83933     -11451.61       100.98975      100.95692      105.54015    
     31100   299.89474      0.0311         1.0949863      0.0076644722   0.050174668    245.94482      274.78762     -10949.863      100.96713      100.93768      105.55038    
     31200   300.73765      0.0312         1.0994312      0.0039509997   0.045729763    327.62929      369.97409     -10994.312      100.93488      100.95877      105.56062    
     31300   301.75417      0.0313         1.1351063  0600   299.51834      0.0306         1.1120606     -0.027232517    0.0036863032  -204.12453     -117.31055     -11120.606      101.05049      100.92603      105.4992     
     30700   299.72062      0.0307         1.1137423     -0.019668554    0.002004681   -138.3909       33.394185     -11137.423      101.03021      100.93579      105.50944    
     30800   298.5321       0.0308         1.0934887      0.0042995992   0.02225822     212.35394      166.04418     -10934.887      100.94402      100.99398      105.51967    
     30900   298.06272      0.0309         1.1206134     -0.021574531    0              22.789882     -83.889231     -11206.134      100.93738      101.00091      105.52991    
     31000   301.99606      0.031          1.145161      -0.043180665    0             -285.14657     -214.83933     -11451.61       100.98975      100.95692      105.54015    
     31100   299.89474      0.0311         1.0949863      0.0076644  -11776.847      100.90701      100.97261      105.62204    
     31900   302.2399       0.0319         1.2023321     -0.066443792    0             -637.08499     -503.34647     -12023.321      101.00363      100.88817      105.63228    
     32000   299.23817      0.032          1.1517383     -0.015192288    0.050593773   -82.989636      83.435016     -11517.383      100.99908      100.84491      105.64251    
     32100   299.43382      0.0321         1.1232259      0.016144085    0.079106189    492.19791      393.89302     -11232.259      100.88539      100.92589      105.65275    
     32200   299.85056      0.0322         1.1558846     -0.010869336    0.046447427    186.8167       38.512526     -11558.846      100.86125      100.9596       105.66299    
     32300   300.28762      0.0323         1.1993195     -0.047882876    0.0030125656  -344.1342      -295.02409     -11993.195      100.92805      100.904        105.67322    
     32400   300.3544       0.0324         1.1874286     -0.032629531    0.014903474   -115.78548     -68.097273     -11874.286      100.93568      100.88178      105.68346    
     32500   300.73605      0.0325         1.1668519     -0.0082369093   0.03548013     82.141031      26.60618      -11668.519      100.90196      100.89777      105.6937     
     32600   299.97042      0.0326         1.17791       -0.011693363    0.024422111    82.376921      35.071326     -11779.1        100.89093      100.89216      105.70393    
     32700   299.94878      0.0327         1.1633428      0.0072290295   0.038989262    228.39121      295.13214     -11633.428      100.90579      100.85902      105.71417    
     32800   301.27755      0.0328         1.1584584      0.010190805    0.043873664    262.74472      350.94368     -11584.584      100.89792      100.86135      105.72441    
     32900   300.78646      0.0329         1.2024138     -0.033756425    0             -93.79259      -141.41859     -12024.138      100.87003      100.90255      105.73464    
     33000   299.46831      0.033          1.2229604     -0.047180819    0             -304.98246     -272.51448     -12229.604      100.88569      100.8813       105.74488    
     33100   299.45263      0.0331         1.1927345     -0.010004005    0.030225957    122.23696      146.79878     -11927.345      100.8973       100.84267      105.75512    
     33200   300.81871      0.0332         1.1858093     -8.6340466e-05  0.037151159    200.68572      279.03417     -11858.093      100.88816      100.83872      105.76535    
     33300   300.41351      0.0333         1.2189791     -0.031290268    0.0039812671  -59.873821     -51.666038     -12189.791      100.85956      100.86724      105.77559    
     33400   299.49136      0.0334         1.2054094     -0.015922468    0.017550984    237.18381      24.498784     -12054.094      100.82618      100.88858      105.78583    
     33500   301.12268      0.0335         1.209253      -0.01552596     0.013707383    54.020489      93.894391     -12092.53       100.87291      100.8395       105.79606    
     33600   301.24432      0.0336         1.2410386     -0.040998684    0     329         1.2024138     -0.033756425    0             -93.79259      -141.41859     -12024.138      100.87003      100.90255      105.73464    
     33000   299.46831      0.033          1.2229604     -0.047180819    0             -304.98246     -272.51448     -12229.604      100.88569      100.8813       105.74488    
     33100   299.45263      0.0331         1.1927345     -0.010004005    0.030225957    122.23696      146.79878     -11927.345      100.8973       100.84267      105.75512    
     33200   300.81871      0.0332         1.1858093     -8.6340466e-05  0.037151159    200.68572      279.03417     -11858.093      100.88816      100.83872      105.76535    
     33300   300.41351      0.0333         1.2189791     -0.031290268    0.0039812671  -59.873821     -51.666038     -12189.791      100.85956      100.86724      105.77559    
     33400   299.49136      0.0334         1.2054094     -0.015922468    0.017550984    237.61      100.79481      105.85748    
     34200   300.25899      0.0342         1.2195152      0.010430145    0.037482832    375.39206      354.91077     -12195.152      100.81824      100.82083      105.86772    
     34300   300.38811      0.0343         1.2364824     -0.0047867102   0.020515654    178.82392      182.14479     -12364.824      100.81234      100.82528      105.87796    
     34400   299.58503      0.0344         1.2749277     -0.036280207    0             -163.71543     -177.51003     -12749.277      100.83229      100.81048      105.88819    
     34500   300.05782      0.0345         1.2930424     -0.046016023    0             -262.68396     -253.44497     -12930.424      100.8389       100.80433      105.89843    
     34600   301.02408      0.0346         1.2669986     -0.017376149    0.02604388    -40.093286     -7.0288409     -12669.986      100.81375      100.81136      105.90867    
     34700   301.778        0.0347         1.2613994     -0.0072256462   0.031643008    140.81178      39.955491     -12613.994      100.78103      100.82728      105.9189     
     34800   298.87232      0.0348         1.2617509     -0.0042002105   0.031291591    166.44558      223.71911     -12617.509      100.79143      100.79528      105.92914    
     34900   300.30115      0.0349         1.2705165     -0.01117626     0.022525949    105.48693      96.7538       -12705.165      100.78863      100.79961      105.93938    
     35000   297.95257      0.035          1.2920067     -0.029165588    0.0010357534  -103.65887     -108.97093     -12920.067      100.79549      100.79906      105.94961    
     35100   299.51195      0.0351         1.3057015     -0.037467358    0             -199.6075      -296.42041     -13057.015      100.81468      100.77356      105.95985    
     35200   299.61506      0.0352         1.3081112     -0.031017438    0             -181.00947     -84.595287     -13081.112      100.83998      100.73823      105.97009    
     35300   300.24697      0.0353         1.2985764     -0.01527327     0.0095347658   37.919262     -6.3721472     -12985.764      100.78838      100.77193      105.98032    
     35400   298.55555      0.0354         1.2834515      0.0007039805   0.024659633    296.86201      217.54394     -12834.515      100.73923      100.79035      105.99056    
     35500   299.01898      0.0355         1.2929294     -0.0087852397   0.015181713    226.25934      122.72912     -12929.294      100.7458       100.77867      106.0008     
     35600   299.298        0.0356         1.3056036     -0.017598921    0.0025075251  -78.729737      34.645496     -13056.036      100.81026      100.72357      106.01103    
     35700   299.93588      0.0357         1.3404814     -0.044568462    0             -305.88618     -208.70257     -13404.814      100.81708      100.7282       106.02127    
     35800   298.60628      0.0358         1.3474803     -0.042994449    0             -227.55754     -404.7604      -13474.803      100.72962      100.79977      106.03151    
     35900   300.27748      0.0359         1.3192646     -0.0099039131   0.028215729    89.551282      3 -0.031017438    0             -181.00947     -84.595287     -13081.112      100.83998      100.73823      105.97009    
     35300   300.24697      0.0353         1.2985764     -0.01527327     0.0095347658   37.919262     -6.3721472     -12985.764      100.78838      100.77193      105.98032    
     35400   298.55555      0.0354         1.2834515      0.0007039805   0.024659633    296.86201      217.54394     -12834.515      100.73923      100.79035      105.99056    
     35500   299.01898      0.0355         1.2929294     -0.0087852397   0.015181713    226.25934      122.72912     -12929.294      100.7458       100.77867      106.0008     
     35600   299.298        0.0356         1.3056036     -0.017598921    0.0025075251  -78.729737      34.645496     -13056.036      100.81026      100.72357      106.01103    
     35700   299.93588      0.0357         1.3404814     -0.044568462    0             -305.88618     -208.70257     6.09293    
     36500   301.0336       0.0365         1.3240998      0.0028181772   0.037106905    235.14529      297.60331     -13240.998      100.7656       100.67234      106.10316    
     36600   300.15008      0.0366         1.3247863      0.0040499484   0.036420411    175.70163      290.06635     -13247.863      100.74177      100.68865      106.1134     
     36700   299.77476      0.0367         1.3454088     -0.016079789    0.015797934    169.82769      24.387806     -13454.088      100.66929      100.76432      106.12364    
     36800   298.83758      0.0368         1.3517114     -0.021959317    0.0094952962   73.593493     -8.0856283     -13517.114      100.6773       100.74623      106.13388    
     36900   300.59785      0.0369         1.3822434     -0.046193408    0             -272.86753     -206.57491     -13822.434      100.74549      100.68714      106.14411    
     37000   301.72561      0.037          1.4042147     -0.057963005    0             -439.92603     -313.75039     -14042.147      100.76209      100.67167      106.15435    
     37100   300.08084      0.0371         1.3522068     -0.0013807647   0.052007848    291.07433      161.15328     -13522.068      100.65832      100.73408      106.16459    
     37200   298.81579      0.0372         1.3443459      0.009173525    0.059868749    436.13426      314.148       -13443.459      100.60419      100.76431      106.17482    
     37300   300.44773      0.0373         1.3801059     -0.024696483    0.024108823    69.979195      102.02403     -13801.059      100.65213      100.72549      106.18506    
     37400   299.74671      0.0374         1.387407      -0.027754003    0.016807698   -68.185099      85.16777      -13874.07       100.7162       100.66716      106.1953     
     37500   298.1853       0.0375         1.4065411     -0.03864393     0             -246.5153      -193.88436     -14065.411      100.71574      100.67038      106.20553    
     37600   300.46248      0.0376         1.4199597     -0.042545196    0             -246.38116     -270.59319     -14199.597      100.66728      100.71191      106.21577    
     37700   301.38173      0.0377         1.4097866     -0.025934387    0.010173021   -116.24817     -127.33975     -14097.866      100.62515      100.73165      106.22601    
     37800   299.07261      0.0378         1.3798937      0.0067767475   0.040065922    279.59656      286.2306      -13798.937      100.62814      100.70023      106.23624    
     37900   300.41499      0.0379         1.384788       0.0021369196   0.035171628    218.10451      343.6001      -13847.88       100.66625      100.65453      106.24648    
     38000   299.43739      0.038          1.4052193     -0.018193883    0.014740366   -19.330645      31.37457      -14052.193      100.64387      100.68129      106.25672    
[...]
    122600   302.81032      0.1226         4.0509772     -0.057666323    0             -533.62509     -477.54888     -40509.772      104.6722       90.262994      114.91694    
    122700   301.04346      0.1227         4.0326035     -0.032496506    0.018373718    26.238028     -126.46026     -40326.035      104.66346      90.240782      114.92718    
    122800   298.23179      0.1228         3.9876569      0.017900184    0.063320283    513.66722      742.92034     -39876.569      104.68937      90.176721      114.93742    
    122900   301.63958      0.1229         4.0444916     -0.033229324    0.0064855984   33.075421     -98.689988     -40444.916      104.6257       90.255128      114.94765    
    123000   301.39563      0.123          4.0631927     -0.047964153    0             -379.25024     -222.43983     -40631.927      104.62716      90.269711      114.95789    
    123100   298.8639       0.1231         4.052958      -0.033625778    0.010234752    4.6508725     -116.10741     -40529.58       104.57206      90.297861      114.96813    
    123200   301.6487       0.1232         4.0441339     -0.019265695    0.019058807    167.52478      209.66622     -40441.339      104.57826      90.26716       114.97836    
    123300   300.636        0.1233         4.0673247     -0.03446206     0              23.073231     -36.800302     -40673.247      104.58126      90.269716      114.9886     
    123400   298.51748      0.1234         4.0734152     -0.031915078    0             -99.800819      62.282461     -40734.152      104.58424      90.262503      114.99884    
    123500   300.6832       0.1235         4.0801617     -0.030470178    0              90.009009     -217.36631     -40801.617      104.5347       90.301856      115.00907    
    123600   300.70456      0.1236         4.0761329     -0.023925793    0.0040288148  -116.93955      230.55527     -40761.329      104.63379      90.192009      115.01931    
    123700   298.1125       0.1237         4.0799742     -0.023029984    0.00018755601  137.64653      60.461735     -40799.742      104.57078      90.245115      115.02955    
    123800   301.41055      0.1238         4.0995228     -0.031392035    0              21.601488     -122.19563     -40995.228      104.50139      90.308165      115.0329.58       104.57206      90.297861      114.96813    
    123200   301.6487       0.1232         4.0441339     -0.019265695    0.019058807    167.52478      209.66622     -40441.339      104.57826      90.26716       114.97836    
    123300   300.636        0.1233         4.0673247     -0.03446206     0              23.073231     -36.800302     -40673.247      104.58126      90.269716      114.9886     
    123400   298.51748      0.1234         4.0734152     -0.031915078    0             -99.800819      62.282461     -40734.152      104.58424      90.262503      114.99884    
    123500   300.6832       0.1235         4.0801617     -0.030470178    0              90.009009     -217.36631     -40801.617      104.5347       90.301856      115.00907    
    123600   300.70456      0.1236         4.0761329     -0.023925793    0.0040288148  -116.93955      230.55527     -40761.329      104.63379      90.192009      115.01931    
    1    -0.0092216383   0.014055256    329.90345      240.52793     -41068.822      104.49736      90.259432      115.1012     
    124500   299.85548      0.1245         4.1501986     -0.045534396    0             -209.40398     -151.19401     -41501.986      104.52105      90.259586      115.11144    
    124600   298.72539      0.1246         4.1714244     -0.057231068    0             -325.60569     -304.47353     -41714.244      104.52176      90.255227      115.12168    
    124700   300.16312      0.1247         4.140577      -0.020323355    0.030847428    62.43097       213.43104     -41405.77       104.47714      90.265667      115.13191    
    124800   300.12358      0.1248         4.1170677      0.0049404876   0.054356786    647.63171      391.98162     -41170.677      104.37287      90.332613      115.14215    
    124900   300.52716      0.1249         4.1686387     -0.038939115    0.0027856975  -92.249864     -22.850766     -41686.387      104.41672      90.310562      115.15239    
    125000   300.12813      0.125          4.1893248     -0.050604896    0             -195.41204     -226.53509     -41893.248      104.42732      90.307286      115.16262    
    125100   300.15222      0.1251         4.1652602     -0.020203815    0.02406463    -96.237873      43.106269     -41652.602      104.43995      90.285327      115.17286    
    125200   300.35054      0.1252         4.1824913     -0.031211062    0.0068335019  -8.0987951     -87.73632      -41824.913      104.38946      90.323678      115.1831     
    125300   298.61682      0.1253         4.17533       -0.01861053     0.013994775    150.92582      106.67815     -41753.3        104.38068      90.310618      115.19333    
    125400   299.40996      0.1254         4.1720547     -0.008817981    0.017270067    125.59237      349.1295      -41720.547      104.41382      90.273322      115.20357    
    125500   302.26349      0.1255         4.2034057     -0.034848257    0              32.841328      0.24426897    -42034.057      104.35682      90.33079       115.21381    
    125600   299.5166       0.1256         4.2051703     -0.033238289    0             -134.82672     -77.460156     -42051.703      104.33069      90.353204      115.22404    
    125700   298.60271      0.1257         4.2115678     -0.032536712    0              100.07711     -40.478998     -42115.678      104.31501      90.356838      115.23428    
    125800   299.51172      0.1258         4.2237468     -0.034047734    0             -165.13138      97.134565     -42237.468      104.38354      90.289068      115.24452    
    125900   301.13159      0.1259         4.2339477     -0.037717745    0              18.328522     -221.9921      -42339.477      104.39803      90.279847      115.25475    
    126000   300.14702      0.126          4.2106958     -0.01232874     0.023251907    33.072306      271.9699      -42106.958      104.50219      90.165766      115.26499    
    126100   298.90355      0.1261         4.225808      -0.021386174    0.0081396909   195.80025      66.39068      -42258.08       104.45897      90.200154      115.27523    
    126200   300.  90.273322      115.20357    
    125500   302.26349      0.1255         4.2034057     -0.034848257    0              32.841328      0.24426897    -42034.057      104.35682      90.33079       115.21381    
    125600   299.5166       0.1256         4.2051703     -0.033238289    0             -134.82672     -77.460156     -42051.703      104.33069      90.353204      115.22404    
    125700   298.60271      0.1257         4.2115678     -0.032536712    0              100.07711     -40.478998     -42115.678      104.31501      90.356838      115.23428    
    125800   299.51172      0.1258         4.2237468     -0.034047734    0             -165.13138      97.134565     -42237.468      104.38354      90.289068      115.24452    
    125900   301.13159      0.1259         4.2339477     -0.037717745    0              18.328522     -221.9921      -42339.477      104.39803      90.279847      115.25475    
    126000   300.14702      0.4792909  -151.79837     -159.17801     -42838.864      104.53776      90.111156      115.33665    
    126800   298.9414       0.1268         4.2639623     -0.01367192     0.027403456    244.80701      164.51827     -42639.623      104.52442      90.099566      115.34688    
    126900   300.62912      0.1269         4.2891248     -0.03331675     0.0022409148  -113.2443       110.4889      -42891.248      104.55687      90.073613      115.35712    
    127000   299.88342      0.127          4.2970371     -0.032594934    0             -131.01979     -219.31978     -42970.371      104.50473      90.119917      115.36736    
    127100   300.07352      0.1271         4.2914828     -0.020473105    0.0055543522  -73.940022      89.995444     -42914.828      104.51751      90.095971      115.3776     
    127200   298.80372      0.1272         4.2968655     -0.021721419    0.00017158387  229.36144     -21.586208     -42968.655      104.47459      90.117943      115.38783    
    127300   300.0257       0.1273         4.3015919     -0.022598499    0             -18.897033      92.411116     -43015.919      104.53821      90.065542      115.39807    
    127400   299.49817      0.1274         4.3065656     -0.019530176    0              65.01369       106.35095     -43065.656      104.59937      90.00492       115.40831    
    127500   300.37931      0.1275         4.3270272     -0.0321363      0             -213.99603     -60.718366     -43270.272      104.66384      89.95028       115.41854    
    127600   299.66816      0.1276         4.3323153     -0.033329445    0             -45.837471     -179.16811     -43323.153      104.65848      89.950285      115.42878    
    127700   300.13345      0.1277         4.3328989     -0.029011765    0             -38.904249      69.563849     -43328.989      104.71281      89.893757      115.43902    
    127800   298.13903      0.1278         4.3203251     -0.010801642    0.012573841    88.118907      34.950993     -43203.251      104.71899      89.8737        115.44925    
    127900   299.40194      0.1279         4.3396718     -0.025093681    0              48.286738     -52.774325     -43396.718      104.74747      89.849456      115.45949    
    128000   302.02281      0.128          4.3389634     -0.02019266     0.00070839107 -61.821406      40.282881     -43389.634      104.80413      89.79726       115.46973    
    128100   301.79401      0.1281         4.3298641     -0.0072552021   0.0098077161   160.9198       134.78862     -43298.641      104.78659      89.79551       115.47996    
    128200   300.10085      0.1282         4.3407559     -0.013757952    0              240.5574       307.55857     -43407.559      104.76464      89.801956      115.4902     
    128300   298.99651      0.1283         4.3689703     -0.035234533    0              73.535794     -50.397196     -43689.703      104.71105      89.857612      115.50044    
    128400   300.57147      0.1284         4.3946394     -0.052096262    0             -448.03899     -357.79105     -43946.394      104.71947      89.865899      115.51067    
    128500   299.87423      0.1285        2    
    127800   298.13903      0.1278         4.3203251     -0.010801642    0.012573841    88.118907      34.950993     -43203.251      104.71899      89.8737        115.44925    
    127900   299.40194      0.1279         4.3396718     -0.025093681    0              48.286738     -52.774325     -43396.718      104.74747      89.849456      115.45949    
    128000   302.02281      0.128          4.3389634     -0.02019266     0.00070839107 -61.821406      40.282881     -43389.634      104.80413      89.79726       115.46973    
    128100   301.79401      0.1281         4.3298641     -0.0072552021   0.0098077161   160.9198       134.78862     -43298.641      104.78659      89.79551       115.47996    
    128200   300.10085      0.1282         4.3407559     -0.013757952    0              240.5574       307.55857     -43407.559      104.76464      89.801956      115.4902     
    128300   298.99651      0.1283         4.3689703   221.96437     -44142.162      104.61202      89.914413      115.57209    
    129100   300.13569      0.1291         4.4595577     -0.069293209    0             -654.07523     -701.01968     -44595.577      104.60595      89.936142      115.58233    
    129200   299.38012      0.1292         4.4342855     -0.034668028    0.025272217   -20.381265      3.5768712     -44342.855      104.61059      89.886695      115.59257    
    129300   300.02205      0.1293         4.3612374      0.037606755    0.098320285    771.38443      679.17268     -43612.374      104.63208      89.823935      115.6028     
    129400   300.5636       0.1294         4.4044709     -0.0046435187   0.055086866    274.08287      244.56345     -44044.709      104.70461      89.786005      115.61304    
    129500   302.01581      0.1295         4.4644821     -0.056935171    0             -483.02993     -433.68006     -44644.821      104.75651      89.7725        115.62328    
    129600   299.89594      0.1296         4.4588766     -0.044366894    0.0056054728  -315.9001      -340.87605     -44588.766      104.73154      89.777063      115.63351    
    129700   298.88357      0.1297         4.4329016     -0.013020145    0.031580445    271.49508      87.800606     -44329.016      104.70631      89.767695      115.64375    
    129800   301.75662      0.1298         4.4225266      0.0019907222   0.041955458    345.70385      292.57999     -44225.266      104.79431      89.677584      115.65399    
    129900   301.18263      0.1299         4.4343093     -0.0056228978   0.030172778    74.874722      295.78822     -44343.093      104.90684      89.577307      115.66422    
    130000   299.95683      0.13           4.4435255     -0.011908193    0.020956548    160.50337      62.166171     -44435.255      104.87496      89.606136      115.67446    
    130100   300.61804      0.1301         4.4630108     -0.031048159    0.0014712768  -142.17156     -185.59664     -44630.108      104.86432      89.625599      115.6847     
    130200   301.06125      0.1302         4.4802351     -0.043677514    0             -422.42011     -402.68871     -44802.351      104.95635      89.551256      115.69493    
    130300   299.49256      0.1303         4.4496438     -0.004245589    0.030591288    56.343814      151.69188     -44496.438      105.07602      89.412832      115.70517    
    130400   299.36633      0.1304         4.4237884      0.023541564    0.056446686    321.18311      334.46109     -44237.884      105.15977      89.32029       115.71541    
    130500   301.18497      0.1305         4.4433232      0.0018908908   0.036911899    20.591076     -61.497512     -44433.232      105.26463      89.245866      115.72564    
    130600   300.94489      0.1306         4.4498506     -0.0055391448   0.030384458   -101.69337     -213.88874     -44498.506      105.39978      89.127389      115.73588    
    130700   300.88337      0.1307         4.4458509     -0.00024448338  0.03438419     41.654939     -118.42433     -44458.509      105.53907      88.989146      115.74612    
    130800   301.01115      0.1308         4.4144301      0.0303667804      0.1301         4.4630108     -0.031048159    0.0014712768  -142.17156     -185.59664     -44630.108      104.86432      89.625599      115.6847     
    130200   301.06125      0.1302         4.4802351     -0.043677514    0             -422.42011     -402.68871     -44802.351      104.95635      89.551256      115.69493    
    130300   299.49256      0.1303         4.4496438     -0.004245589    0.030591288    56.343814      151.69188     -44496.438      105.07602      89.412832      115.70517    
    130400   299.36633      0.1304         4.4237884      0.023541564    0.056446686    321.18311      334.46109     -44237.884      105.15977      89.32029       115.71541    
    130500   301.18497      0.1305         4.4433232      0.0018908908   0.036911899    20.591076     -61.497512     -44433.232      105.26463      89.245866      115.72564    
    130600   300.94489      0.1306         4.4498506     -0.0055391448   0.03038     107.07241      87.624889      115.80754    
    131400   299.07026      0.1314         4.1931541      0.17153431     0.28708104     201.00642     -444.48616     -41931.541      107.40845      87.334668      115.81777    
    131500   298.80359      0.1315         4.1297041      0.20362238     0.35053102     309.05229     -490.42766     -41297.041      107.75567      87.019527      115.82801    
    131600   300.13172      0.1316         4.0169884      0.27305187     0.46324674     521.82513     -555.36283     -40169.884      108.16148      86.658204      115.83825    
    131700   301.18211      0.1317         3.8920848      0.34257883     0.58815031     608.31148     -768.28953     -38920.848      108.60556      86.267856      115.84848    
    131800   300.67054      0.1318         3.7377913      0.42920844     0.7424438      802.85948     -804.13468     -37377.913      109.09907      85.819531      115.85872    
    131900   298.88113      0.1319         3.5374028      0.54532128     0.94283228     1019.3736     -1119.3959     -35374.028      109.64431      85.337901      115.86896    
    132000   301.99985      0.132          3.2910061      0.68064639     1.189229       1196.8791     -1413.3452     -32910.061      110.25109      84.805749      115.87919    
    132100   300.33687      0.1321         2.9905208      0.84272644     1.4897143      1482.0338     -1674.9957     -29905.208      110.90229      84.223906      115.88943    
    132200   302.27139      0.1322         2.6706643      0.99949329     1.8095708      1649.0232     -1885.7142     -26706.643      111.60746      83.598452      115.89967    
Fix halt condition for fix-id halt_peak_fix met on step 132300 with value 1
    132300   301.31704      0.1323         2.3331242      1.1461199      2.1471109      1607.6797     -1654.7451     -23331.242      112.31407      82.982742      115.9099     
Loop time of 885.456 on 1 procs for 132300 steps with 62500 atoms

Performance: 25.819 ns/day, 0.930 hours/ns, 149.415 timesteps/s, 9.338 Matom-step/s
99.9% CPU use with 1 MPI tasks x 1 OpenMP threads

MPI task timing breakdown:
Section |  min time  |  avg time  |  max time  |%varavg| %total
---------------------------------------------------------------
Pair    | 418.63     | 418.63     | 418.63     |   0.0 | 47.28
Neigh   | 0.97956    | 0.97956    | 0.97956    |   0.0 |  0.11
Comm    | 19.446     | 19.446     | 19.446     |   0.0 |  2.20
Output  | 186.37     | 186.37     | 186.37     |   0.0 | 21.05
Modify  | 242.34     | 242.34     | 242.34     |   0.0 | 27.37
Other   |            | 17.68      |            |       |  2.00

Nlocal:          62500 ave       62500 max       62500 min
Histogram: 1 0 0 0 0 0 0 0 0 0
Nghost:          33266 ave       33266 max       33266 min
Histogram: 1 0 0 0 0 0 0 0 0 0
Neighs:              0 ave           0 max           0 min
Histogram: 1 0 0 0 0 0 0 0 0 0
FullNghs:  6.53087e+06 ave 6.53087e+06 max 6.53087e+06 min
Histogram: 1 0 0 0 0 0 0 0 0 0

Total # of neighbors = 6530874
Ave neighs/atom = 104.49398
Neighbor list builds = 860
Dangerous builds = 0


---------------------------------------------------------------------
      Device Time Info (average): 
---------------------------------------------------------------------
Data Transfer:   213.2971 s.
Neighbor copy:   0.0566 s.
Neighbor build:  0.3222 s.
Force calc:      130.1472 s.
Device Overhead: 4.3221 s.
CPU Neighbor:    0.6288 s.
CPU Cast/Pack:   73.0840 s.
CPU Driver_Time: 3.8114 s.
CPU Idle_Time:   278.5224 s.
Average split:   1.0000.
Max Mem / Proc:  99.11 MB.
Prefetch mode:   None.
Vector width:    32.
Lanes / atom:    4.
Pair block:      256.
Neigh block:     128.
Neigh mode:      Hybrid (binning on host) with subgroup support.
Neigh sorting:   Unavailable or disabled.
---------------------------------------------------------------------

Total wall time: 0:14:58
            |       |  2.00

Nlocal:          62500 ave       62500 max       62500 min
Histogram: 1 0 0 0 0 0 0 0 0 0
Nghost:          33266 ave       33266 max       33266 min
Histogram: 1 0 0 0 0 0 0 0 0 0
Neighs:              0 ave           0 max           0 min
Histogram: 1 0 0 0 0 0 0 0 0 0
FullNghs:  6.53087e+06 ave 6.53087e+06 max 6.53087e+06 min
Histogram: 1 0 0 0 0 0 0 0 0 0

Total # of neighbors = 6530874
Ave neighs/atom = 104.49398
Neighbor list builds = 860
Dangerous builds = 0
Total wall time: 0:14:58
