(written by ASE)

11520 atoms
1 atom types

0.0      51.123820279787395  xlo xhi
0.0      53.129432520967136  ylo yhi
0.0      50.090909354891934  zlo zhi

Atoms # atomic

     1   1      2.5561910139893693 -1.5997369426623937e-16 -1.9167520868293902e-16
     2   1      1.2780955069946844      2.2137263550402975 -6.3477696257368078e-17
     3   1 -1.7417428720846013e-16      4.4274527100805949 -1.2695539251473616e-16
     4   1                       0                       0                       0
     5   1 -1.7417428720846013e-16      1.4758175700268648      2.0871212231204974
     6   1      3.8342865209840542      2.2137263550402975 -2.8552230118239939e-16
     7   1      1.2780955069946847       6.641179065120892  3.1611516152927074e-17
     8   1      3.8342865209840538       6.641179065120892  3.1611516152927074e-17
     9   1      2.5561910139893693      4.4274527100805949 -1.2695539251473616e-16
    10   1      1.2780955069946847      3.6895439250671624      2.0871212231204974
    11   1      3.8342865209840538      3.6895439250671624      2.0871212231204974
    12   1      2.5561910139893693      5.9032702801074599      2.0871212231204974
    13   1      2.5561910139893693       1.475817570026865      2.0871212231204974
    14   1      1.2780955069946847     0.73790878501343327      4.1742424462409948
    15   1      3.8342865209840538     0.73790878501343327      4.1742424462409948
    16   1      2.5561910139893693        2.95163514005373      4.1742424462409948
    17   1      1.2780955069946844      8.1169966351477569      2.0871212231204974
    18   1   9.574063543314236e-17      5.9032702801074599      2.0871212231204974
    19   1      1.2780955069946844       5.165361495094027      4.1742424462409948
    20   1   5.496033316981922e-16       7.379087850134324      4.1742424462409939
    21   1   9.574063543314236e-17        2.95163514005373      4.1742424462409948
    22   1      3.8342865209840542      8.1169966351477569      2.0871212231204974
    23   1      3.8342865209840542       5.165361495094027      4.1742424462409948
    24   1      2.5561910139893693      7.3790878501343249      4.1742424462409948
    25   1      2.5561910139893693  1.6679175425457671e-16      6.2613636693614927
    26   1      1.2780955069946844      2.2137263550402975      6.2613636693614927
    27   1 -7.8433651775317769e-17      4.4274527100805949      6.2613636693614927
    28   1   9.574063543314236e-17  1.6679175425457671e-16      6.2613636693614927
    29   1 -7.8433651775317769e-17      1.4758175700268652      8.3484848924819897
    30   1      3.8342865209840542      2.2137263550402975      6.2613636693614927
    31   1      1.2780955069946849       6.641179065120892      6.2613636693614918
    32   1      3.8342865209840542       6.641179065120892      6.2613636693614936
    33   1      2.5561910139893693      4.4274527100805949      6.2613636693614927
    34   1      1.2780955069946849       3.689543925067162      8.3484848924819897
    35   1      3.8342865209840542       3.689543925067162      8.3484848924819914
    36   1      2.5561910139893698      5.9032702801074599      8.3484848924819914
    37   1      2.5561910139893693      1.4758175700268652      8.3484848924819897
    38   1      1.2780955069946849     0.73790878501343304      10.435606115602486
    39   1      3.8342865209840542     0.73790878501343304      10.435606115602488
    40   1      2.5561910139893698        2.95163514005373      10.435606115602489
    41   1      1.2780955069946851      8.1169966351477569      8.3484848924819914
    42   1  1.9148127086628472e-16      5.9032702801074599      8.3484848924819897
    43   1      1.2780955069946851       5.165361495094027      10.435606115602489
    44   1  1.0894331769813972e-15       7.379087850134324      10.435606115602488
    45   1  1.9148127086628472e-16        2.95163514005373      10.435606115602488
    46   1      3.8342865209840538      8.1169966351477569      8.3484848924819897
    47   1      3.8342865209840538       5.165361495094027      10.435606115602488
    48   1      2.5561910139893689      7.3790878501343249      10.435606115602488
    49   1      2.5561910139893689 -5.5459491119097181e-16      12.522727338722985
    50   1      1.2780955069946842      2.2137263550402975      12.522727338722985
    51   1  -1.054819209665748e-15      4.4274527100805949      12.522727338722985
    52   1  1.9148127086628472e-16  3.3358350850915342e-16      12.522727338722985
    53   1  -1.054819209665748e-15      1.4758175700268654      14.609848561843483
    54   1      3.8342865209840538      2.2137263550402975      12.522727338722985
    55   1      1.2780955069946838       6.641179065120892      12.522727338722985
    56   1      3.8342865209840538       6.641179065120892      12.522727338722985
    57   1      2.5561910139893689      4.4274527100805949      12.522727338722985
    58   1      1.2780955069946838      3.6895439250671624      14.609848561843483
    59   1      3.8342865209840538      3.6895439250671624      14.609848561843483
    60   1      2.5561910139893689      5.9032702801074599      14.609848561843483
    61   1      2.5561910139893689      1.4758175700268654      14.609848561843483
    62   1      1.2780955069946838     0.73790878501343315      16.696969784963979
    63   1      3.8342865209840538     0.73790878501343315      16.696969784963979
    64   1      2.5561910139893689      2.9516351400537304      16.696969784963979
    65   1      1.2780955069946847      8.1169966351477569      14.609848561843481
    66   1 -1.5686730355063554e-16      5.9032702801074599      14.609848561843483
    67   1      1.2780955069946847      5.1653614950940261      16.696969784963979
    68   1  7.4108460256447692e-16       7.379087850134324      16.696969784963979
    69   1 -1.5686730355063554e-16      2.9516351400537304      16.696969784963979
    70   1      3.8342865209840538      8.1169966351477587      14.609848561843483
    71   1      3.8342865209840538      5.1653614950940279      16.696969784963979
    72   1      2.5561910139893698       7.379087850134324      16.696969784963979
    73   1      2.5561910139893698 -1.2759815766365203e-15      18.784091008084477
    74   1      1.2780955069946847      2.2137263550402957      18.784091008084477
    75   1  7.4108460256447692e-16       4.427452710080594      18.784091008084477
    76   1 -1.5686730355063554e-16  5.0037526276373013e-16      18.784091008084477
    77   1  7.4108460256447692e-16      1.4758175700268645      20.871212231204975
    78   1      3.8342865209840546      2.2137263550402957      18.784091008084477
    79   1      1.2780955069946855       6.641179065120892      18.784091008084477
    80   1      3.8342865209840546       6.641179065120892      18.784091008084477
    81   1      2.5561910139893698       4.427452710080594      18.784091008084477
    82   1      1.2780955069946855      3.6895439250671616      20.871212231204975
    83   1      3.8342865209840546      3.6895439250671616      20.871212231204975
    84   1      2.5561910139893707      5.9032702801074581      20.871212231204975
    85   1      2.5561910139893698      1.4758175700268645      20.871212231204975
    86   1      1.2780955069946855     0.73790878501343338      22.958333454325473
    87   1      3.8342865209840546     0.73790878501343338      22.958333454325473
    88   1      2.5561910139893707      2.9516351400537286      22.958333454325473
    89   1      1.2780955069946853      8.1169966351477569      20.871212231204975
    90   1  3.8296254173256944e-16      5.9032702801074599      20.871212231204975
    91   1      1.2780955069946853      5.1653614950940261      22.958333454325473
    92   1  2.5369884147947018e-15      7.3790878501343222      22.958333454325473
    93   1  3.8296254173256944e-16      2.9516351400537304      22.958333454325473
    94   1      3.8342865209840555      8.1169966351477569      20.871212231204979
    95   1      3.8342865209840555      5.1653614950940261      22.958333454325476
    96   1      2.5561910139893702       7.379087850134324      22.958333454325476
    97   1      2.5561910139893707 -1.1091898223819436e-15      25.045454677445971
    98   1      1.2780955069946853      2.2137263550402975      25.045454677445971
    99   1  2.4840480900661958e-17      4.4274527100805949      25.045454677445971
   100   1  3.8296254173256944e-16  6.6716701701830684e-16      25.045454677445971
   101   1  2.4840480900661958e-17      1.4758175700268648      27.132575900566469
   102   1      3.8342865209840555      2.2137263550402975      25.045454677445974
   103   1      1.2780955069946849       6.641179065120892      25.045454677445974
   104   1      3.8342865209840533       6.641179065120892      25.045454677445971
   105   1      2.5561910139893702      4.4274527100805949      25.045454677445974
   106   1      1.2780955069946849      3.6895439250671633      27.132575900566472
   107   1      3.8342865209840533      3.6895439250671633      27.132575900566469
   108   1       2.556191013989368      5.9032702801074608      27.132575900566469
   109   1      2.5561910139893702      1.4758175700268648      27.132575900566472
   110   1      1.2780955069946849     0.73790878501343493      29.219697123686966
   111   1      3.8342865209840533     0.73790878501343493      29.219697123686963
   112   1       2.556191013989368      2.9516351400537308      29.219697123686966
   113   1      1.2780955069946827      8.1169966351477569      27.132575900566469
   114   1 -3.3328157993124552e-16      5.9032702801074608      27.132575900566472
   115   1      1.2780955069946827      5.1653614950940288      29.219697123686966
   116   1  4.4387453730636406e-17      7.3790878501343249      29.219697123686966
   117   1 -3.3328157993124552e-16      2.9516351400537308       29.21969712368697
   118   1      3.8342865209840529      8.1169966351477569      27.132575900566469
   119   1      3.8342865209840529      5.1653614950940288      29.219697123686966
   120   1      2.5561910139893675      7.3790878501343249      29.219697123686966
   121   1      2.5561910139893698  1.1599263247952478e-15      31.306818346807468
   122   1      1.2780955069946844      2.2137263550402997      31.306818346807468
   123   1   -6.91403640763153e-16      4.4274527100805967      31.306818346807468
   124   1 -3.3328157993124552e-16  -6.164305146050027e-16      31.306818346807468
   125   1   -6.91403640763153e-16       1.475817570026867      33.393939569927966
   126   1      3.8342865209840564      2.2137263550402997      31.306818346807468
   127   1       1.278095506994686       6.641179065120892      31.306818346807468
   128   1      3.8342865209840524       6.641179065120892      31.306818346807464
   129   1      2.5561910139893711      4.4274527100805967      31.306818346807468
   130   1       1.278095506994686      3.6895439250671638      33.393939569927966
   131   1      3.8342865209840524      3.6895439250671638      33.393939569927959
   132   1      2.5561910139893671       5.903270280107459      33.393939569927959
   133   1      2.5561910139893711       1.475817570026867      33.393939569927966
   134   1       1.278095506994686     0.73790878501343549      35.481060793048464
   135   1      3.8342865209840524     0.73790878501343549      35.481060793048457
   136   1      2.5561910139893671      2.9516351400537295      35.481060793048457
   137   1       1.278095506994682      8.1169966351477587      33.393939569927966
   138   1  7.2683113780518998e-16      5.9032702801074626      33.393939569927966
   139   1       1.278095506994682      5.1653614950940296      35.481060793048464
   140   1 -6.7185666793317855e-16      7.3790878501343249      35.481060793048457
   141   1  7.2683113780518998e-16      2.9516351400537331      35.481060793048464
   142   1       3.834286520984052      8.1169966351477587      33.393939569927966
   143   1       3.834286520984052      5.1653614950940296      35.481060793048457
   144   1      2.5561910139893671      7.3790878501343249      35.481060793048464
   145   1      2.5561910139893698  1.0007505255274603e-15      37.568182016168954
   146   1      1.2780955069946847      2.2137263550402979      37.568182016168954
   147   1 -6.7185666793317855e-16      4.4274527100805949      37.568182016168954
   148   1 -3.1373460710127107e-16  1.0007505255274603e-15      37.568182016168954
   149   1 -6.7185666793317855e-16       1.475817570026867      39.655303239289452
   150   1      3.8342865209840546      2.2137263550402979      37.568182016168954
   151   1      1.2780955069946842       6.641179065120892      37.568182016168954
   152   1      3.8342865209840542       6.641179065120892      37.568182016168954
   153   1      2.5561910139893693      4.4274527100805914      37.568182016168954
   154   1      1.2780955069946842      3.6895439250671638      39.655303239289452
   155   1      3.8342865209840542      3.6895439250671638      39.655303239289452
   156   1      2.5561910139893689      5.9032702801074572      39.655303239289452
   157   1      2.5561910139893693      1.4758175700268634      39.655303239289452
   158   1      1.2780955069946842     0.73790878501343238       41.74242446240995
   159   1      3.8342865209840542     0.73790878501343238       41.74242446240995
   160   1      2.5561910139893689      2.9516351400537291       41.74242446240995
   161   1      1.2780955069946864      8.1169966351477552      39.655303239289452
   162   1  1.4821692051289538e-15      5.9032702801074572      39.655303239289452
   163   1      1.2780955069946864      5.1653614950940261       41.74242446240995
   164   1  1.1240471442970464e-15      7.3790878501343231       41.74242446240995
   165   1  1.4821692051289538e-15      2.9516351400537291       41.74242446240995
   166   1      3.8342865209840538      8.1169966351477587      39.655303239289452
   167   1      3.8342865209840538      5.1653614950940296       41.74242446240995
   168   1      2.5561910139893711      7.3790878501343231       41.74242446240995
   169   1      2.5561910139893715  8.4157472625967274e-16      43.829545685530448
   170   1      1.2780955069946864      2.2137263550402975      43.829545685530441
   171   1  1.1240471442970464e-15      4.4274527100805976      43.829545685530441
   172   1  1.4821692051289538e-15  8.4157472625967274e-16      43.829545685530448
   173   1  1.1240471442970464e-15      1.4758175700268668      45.916666908650946
   174   1      3.8342865209840564      2.2137263550402975      43.829545685530441
   175   1       1.278095506994686       6.641179065120892      43.829545685530448
   176   1      3.8342865209840524       6.641179065120892      43.829545685530448
   177   1      2.5561910139893711      4.4274527100805976      43.829545685530441
   178   1       1.278095506994686      3.6895439250671633      45.916666908650946
   179   1      3.8342865209840524      3.6895439250671633      45.916666908650946
   180   1      2.5561910139893675      5.9032702801074599      45.916666908650939
   181   1      2.5561910139893711      1.4758175700268668      45.916666908650946
   182   1       1.278095506994686     0.73790878501343515      48.003788131771444
   183   1      3.8342865209840524     0.73790878501343515      48.003788131771444
   184   1      2.5561910139893675      2.9516351400537291      48.003788131771444
   185   1       1.278095506994682      8.1169966351477569      45.916666908650946
   186   1  7.6592508346513888e-16      5.9032702801074635      45.916666908650939
   187   1       1.278095506994682      5.1653614950940296      48.003788131771444
   188   1 -6.3276272227322966e-16      7.3790878501343258      48.003788131771437
   189   1  7.6592508346513888e-16      2.9516351400537326      48.003788131771444
   190   1      3.8342865209840524      8.1169966351477534      45.916666908650939
   191   1      3.8342865209840524      5.1653614950940261      48.003788131771437
   192   1      2.5561910139893671      7.3790878501343258      48.003788131771437
   193   1      2.5561910139893693      8.8549054201611899 -2.5391078502947231e-16
   194   1      1.2780955069946844      11.068631775201487 -6.0813392606409286e-16
   195   1 -7.8433651775317769e-17      13.282358130241784  6.3223032305854149e-17
   196   1   9.574063543314236e-17      8.8549054201611899 -2.5391078502947231e-16
   197   1 -7.8433651775317769e-17      10.330722990188054      2.0871212231204974
   198   1      3.8342865209840542      11.068631775201487 -6.0813392606409286e-16
   199   1      1.2780955069946849      15.496084485282081 -1.5359842902432407e-16
   200   1      3.8342865209840542      15.496084485282081  1.6227584103759264e-15
   201   1      2.5561910139893693      13.282358130241784  6.3223032305854149e-17
   202   1      1.2780955069946849      12.544449345228353      2.0871212231204965
   203   1      3.8342865209840542      12.544449345228353      2.0871212231204983
   204   1      2.5561910139893698       14.75817570026865      2.0871212231204987
   205   1      2.5561910139893693      10.330722990188054      2.0871212231204974
   206   1      1.2780955069946849      9.5928142051746228      4.1742424462409939
   207   1      3.8342865209840542      9.5928142051746228      4.1742424462409957
   208   1      2.5561910139893698       11.80654056021492      4.1742424462409966
   209   1      1.2780955069946851      16.971902055308945      2.0871212231204996
   210   1  1.9148127086628472e-16       14.75817570026865       2.087121223120497
   211   1      1.2780955069946851      14.020266915255217      4.1742424462409957
   212   1  1.0894331769813972e-15      16.233993270295514      4.1742424462409948
   213   1  1.9148127086628472e-16       11.80654056021492      4.1742424462409948
   214   1      3.8342865209840538      16.971902055308945      2.0871212231204979
   215   1      3.8342865209840538      14.020266915255217      4.1742424462409939
   216   1      2.5561910139893689      16.233993270295514      4.1742424462409948
   217   1      2.5561910139893689      8.8549054201611881      6.2613636693614918
   218   1      1.2780955069946842      11.068631775201487      6.2613636693614927
   219   1  -1.054819209665748e-15      13.282358130241784      6.2613636693614927
   220   1  1.9148127086628472e-16      8.8549054201611899      6.2613636693614918
   221   1  -1.054819209665748e-15      10.330722990188054      8.3484848924819897
   222   1      3.8342865209840538      11.068631775201487      6.2613636693614927
   223   1      1.2780955069946838      15.496084485282083      6.2613636693614918
   224   1      3.8342865209840538      15.496084485282083      6.2613636693614918
   225   1      2.5561910139893689      13.282358130241784      6.2613636693614927
   226   1      1.2780955069946838      12.544449345228351      8.3484848924819897
   227   1      3.8342865209840538      12.544449345228351      8.3484848924819897
   228   1      2.5561910139893689       14.75817570026865      8.3484848924819897
   229   1      2.5561910139893689      10.330722990188054      8.3484848924819897
   230   1      1.2780955069946838      9.5928142051746228      10.435606115602488
   231   1      3.8342865209840538      9.5928142051746228      10.435606115602488
   232   1      2.5561910139893689       11.80654056021492      10.435606115602488
   233   1      1.2780955069946847      16.971902055308945      8.3484848924819879
   234   1 -1.5686730355063554e-16       14.75817570026865      8.3484848924819897
   235   1      1.2780955069946847      14.020266915255215      10.435606115602486
   236   1  7.4108460256447692e-16      16.233993270295514      10.435606115602486
   237   1 -1.5686730355063554e-16       11.80654056021492      10.435606115602488
   238   1      3.8342865209840538      16.971902055308949      8.3484848924819897
   239   1      3.8342865209840538      14.020266915255217      10.435606115602488
   240   1      2.5561910139893698      16.233993270295514      10.435606115602486
   241   1      2.5561910139893698      8.8549054201611881      12.522727338722984
   242   1      1.2780955069946847      11.068631775201485      12.522727338722984
   243   1  7.4108460256447692e-16      13.282358130241784      12.522727338722984
   244   1 -1.5686730355063554e-16      8.8549054201611899      12.522727338722985
   245   1  7.4108460256447692e-16      10.330722990188054      14.609848561843481
   246   1      3.8342865209840546      11.068631775201485      12.522727338722984
   247   1      1.2780955069946855      15.496084485282081      12.522727338722984
   248   1      3.8342865209840546      15.496084485282081      12.522727338722984
   249   1      2.5561910139893698      13.282358130241784      12.522727338722984
   250   1      1.2780955069946855      12.544449345228351      14.609848561843481
   251   1      3.8342865209840546      12.544449345228351      14.609848561843481
   252   1      2.5561910139893707      14.758175700268648      14.609848561843481
   253   1      2.5561910139893698      10.330722990188054      14.609848561843481
   254   1      1.2780955069946855      9.5928142051746228      16.696969784963979
   255   1      3.8342865209840546      9.5928142051746228      16.696969784963979
   256   1      2.5561910139893707      11.806540560214918      16.696969784963979
   257   1      1.2780955069946853      16.971902055308945      14.609848561843481
   258   1  3.8296254173256944e-16       14.75817570026865      14.609848561843481
   259   1      1.2780955069946853      14.020266915255215      16.696969784963979
   260   1  2.5369884147947018e-15       16.23399327029551      16.696969784963979
   261   1  3.8296254173256944e-16       11.80654056021492      16.696969784963979
   262   1      3.8342865209840555      16.971902055308945      14.609848561843485
   263   1      3.8342865209840555      14.020266915255215      16.696969784963983
   264   1      2.5561910139893702      16.233993270295514      16.696969784963983
   265   1      2.5561910139893707      8.8549054201611881      18.784091008084477
   266   1      1.2780955069946853      11.068631775201487      18.784091008084477
   267   1  2.4840480900661958e-17      13.282358130241784      18.784091008084477
   268   1  3.8296254173256944e-16      8.8549054201611899      18.784091008084477
   269   1  2.4840480900661958e-17      10.330722990188054      20.871212231204975
   270   1      3.8342865209840555      11.068631775201487      18.784091008084481
   271   1      1.2780955069946849      15.496084485282081      18.784091008084481
   272   1      3.8342865209840533      15.496084485282081      18.784091008084477
   273   1      2.5561910139893702      13.282358130241784      18.784091008084481
   274   1      1.2780955069946849      12.544449345228353      20.871212231204979
   275   1      3.8342865209840533      12.544449345228353      20.871212231204975
   276   1       2.556191013989368       14.75817570026865      20.871212231204975
   277   1      2.5561910139893702      10.330722990188054      20.871212231204979
   278   1      1.2780955069946849      9.5928142051746228      22.958333454325476
   279   1      3.8342865209840533      9.5928142051746228      22.958333454325473
   280   1       2.556191013989368       11.80654056021492      22.958333454325473
   281   1      1.2780955069946827      16.971902055308949      20.871212231204975
   282   1 -3.3328157993124552e-16       14.75817570026865      20.871212231204979
   283   1      1.2780955069946827      14.020266915255219      22.958333454325473
   284   1  4.4387453730636406e-17      16.233993270295514      22.958333454325473
   285   1 -3.3328157993124552e-16       11.80654056021492      22.958333454325476
   286   1      3.8342865209840529      16.971902055308949      20.871212231204975
   287   1      3.8342865209840529      14.020266915255219      22.958333454325473
   288   1      2.5561910139893675      16.233993270295514      22.958333454325473
   289   1      2.5561910139893698      8.8549054201611916      25.045454677445974
   290   1      1.2780955069946844       11.06863177520149      25.045454677445974
   291   1   -6.91403640763153e-16      13.282358130241787      25.045454677445974
   292   1 -3.3328157993124552e-16      8.8549054201611899      25.045454677445974
   293   1   -6.91403640763153e-16      10.330722990188058      27.132575900566472
   294   1      3.8342865209840564       11.06863177520149      25.045454677445974
   295   1       1.278095506994686      15.496084485282084      25.045454677445974
   296   1      3.8342865209840524      15.496084485282084      25.045454677445971
   297   1      2.5561910139893711      13.282358130241787      25.045454677445974
   298   1       1.278095506994686      12.544449345228355      27.132575900566472
   299   1      3.8342865209840524      12.544449345228355      27.132575900566469
   300   1      2.5561910139893671       14.75817570026865      27.132575900566469
   301   1      2.5561910139893711      10.330722990188058      27.132575900566472
   302   1       1.278095506994686      9.5928142051746246       29.21969712368697
   303   1      3.8342865209840524      9.5928142051746246      29.219697123686966
   304   1      2.5561910139893671       11.80654056021492      29.219697123686966
   305   1       1.278095506994682      16.971902055308949      27.132575900566472
   306   1  7.2683113780518998e-16      14.758175700268653      27.132575900566472
   307   1       1.278095506994682       14.02026691525522       29.21969712368697
   308   1 -6.7185666793317855e-16      16.233993270295517      29.219697123686966
   309   1  7.2683113780518998e-16      11.806540560214923       29.21969712368697
   310   1       3.834286520984052      16.971902055308949      27.132575900566469
   311   1       3.834286520984052       14.02026691525522      29.219697123686966
   312   1      2.5561910139893671      16.233993270295517       29.21969712368697
   313   1      2.5561910139893707      8.8549054201611881      31.306818346807468
   314   1      1.2780955069946855      11.068631775201489      31.306818346807468
   315   1   3.687090769732825e-16      13.282358130241784      31.306818346807468
   316   1  7.2683113780518998e-16      8.8549054201611916      31.306818346807468
   317   1   3.687090769732825e-16      10.330722990188054      33.393939569927966
   318   1      3.8342865209840555      11.068631775201489      31.306818346807468
   319   1      1.2780955069946853      15.496084485282084      31.306818346807468
   320   1       3.834286520984052      15.496084485282084      31.306818346807468
   321   1      2.5561910139893707      13.282358130241784      31.306818346807468
   322   1      1.2780955069946853      12.544449345228355      33.393939569927966
   323   1       3.834286520984052      12.544449345228355      33.393939569927966
   324   1      2.5561910139893667       14.75817570026865      33.393939569927966
   325   1      2.5561910139893707      10.330722990188054      33.393939569927966
   326   1      1.2780955069946853      9.5928142051746246      35.481060793048464
   327   1       3.834286520984052      9.5928142051746246      35.481060793048464
   328   1      2.5561910139893667       11.80654056021492      35.481060793048464
   329   1      1.2780955069946813      16.971902055308949      33.393939569927966
   330   1  1.0587016141375022e-17       14.75817570026865      33.393939569927966
   331   1      1.2780955069946813       14.02026691525522      35.481060793048464
   332   1 -1.3881007895969935e-15      16.233993270295517      35.481060793048464
   333   1  1.0587016141375022e-17       11.80654056021492      35.481060793048464
   334   1      3.8342865209840515      16.971902055308945      33.393939569927966
   335   1      3.8342865209840515      14.020266915255217      35.481060793048464
   336   1      2.5561910139893662      16.233993270295517      35.481060793048464
   337   1      2.5561910139893715      8.8549054201611881      37.568182016168954
   338   1      1.2780955069946864      11.068631775201485      37.568182016168954
   339   1  1.1240471442970464e-15      13.282358130241784      37.568182016168954
   340   1  1.4821692051289538e-15      8.8549054201611881      37.568182016168954
   341   1  1.1240471442970464e-15      10.330722990188054      39.655303239289452
   342   1      3.8342865209840564      11.068631775201485      37.568182016168954
   343   1       1.278095506994686      15.496084485282079      37.568182016168954
   344   1      3.8342865209840524      15.496084485282079      37.568182016168954
   345   1      2.5561910139893711      13.282358130241784      37.568182016168954
   346   1       1.278095506994686      12.544449345228351      39.655303239289452
   347   1      3.8342865209840524      12.544449345228351      39.655303239289452
   348   1      2.5561910139893675      14.758175700268646      39.655303239289452
   349   1      2.5561910139893711      10.330722990188054      39.655303239289452
   350   1       1.278095506994686      9.5928142051746228       41.74242446240995
   351   1      3.8342865209840524      9.5928142051746228       41.74242446240995
   352   1      2.5561910139893675      11.806540560214916       41.74242446240995
   353   1       1.278095506994682      16.971902055308945      39.655303239289452
   354   1  7.6592508346513888e-16       14.75817570026865      39.655303239289452
   355   1       1.278095506994682      14.020266915255217       41.74242446240995
   356   1 -6.3276272227322966e-16      16.233993270295514       41.74242446240995
   357   1  7.6592508346513888e-16       11.80654056021492       41.74242446240995
   358   1      3.8342865209840524      16.971902055308941      39.655303239289445
   359   1      3.8342865209840524      14.020266915255213      41.742424462409943