LAMMPS (10 Dec 2025)
OMP_NUM_THREADS environment is not set. Defaulting to 1 thread.
  using 1 OpenMP thread(s) per MPI task
Reading data file ...
  orthogonal box = (0 0 0) to (48.936 48.936 48.936)
  1 by 1 by 1 MPI processor grid
  reading atoms ...
  6912 atoms
  read_data CPU = 0.025 seconds
Changing box ...
  triclinic box = (0 0 0) to (48.936 48.936 48.936) with tilt (0 0 0)
Reading eam potential file /mnt/c/Users/iwash/Documents/Repositories/Simulation/potentials/Au_u3.eam with DATE: 2007-06-11
=== Phase 1: 0K Relaxation ===
Switching to 'neigh_modify every 1 delay 0 check yes' setting during minimization
Neighbor list info ...
  update: every = 1 steps, delay = 0 steps, check = yes
  max neighbors/atom: 2000, page size: 100000
  master list distance cutoff = 7.55
  ghost atom cutoff = 7.55
  binsize = 3.775, bins = 13 13 13
  1 neighbor lists, perpetual/occasional/extra = 1 0 0
  (1) pair eam, perpetual
      attributes: half, newton on
      pair build: half/bin/atomonly/newton/tri
      stencil: half/bin/3d/tri
      bin: standard
Setting up cg style minimization ...
  Unit style    : metal
  Current step  : 0
WARNING: Energy due to 3 extra global DOFs will be included in minimizer energies
 (src/min.cpp:222)
Per MPI rank memory allocation (min/avg/max) = 5.973 | 5.973 | 5.973 Mbytes
   Step          Temp          PotEng         Press           Pxx            Pyy            Pzz             Lx             Ly             Lz      
         0   0             -27164.028      2464.333       2464.333       2464.333       2464.333       48.936         48.936         48.936       
         2   0             -27164.16      -0.049243444   -0.049243444   -0.049243444   -0.049243444    48.960001      48.960001      48.960001    
Loop time of 0.0187442 on 1 procs for 2 steps with 6912 atoms

109.6% CPU use with 1 MPI tasks x 1 OpenMP threads

Minimization stats:
  Stopping criterion = energy tolerance
  Energy initial, next-to-last, final = 
     -27164.0275347282  -27164.1599998637  -27164.1600012684
  Force two-norm initial, final = 312.20156 0.0062446771
  Force max component initial, final = 180.24965 0.003605366
  Final line search alpha, max atom move = 0.0017364312 6.2604701e-06
  Iterations, force evaluations = 2 4

MPI task timing breakdown:
Section |  min time  |  avg time  |  max time  |%varavg| %total
---------------------------------------------------------------
Pair    | 0.017861   | 0.017861   | 0.017861   |   0.0 | 95.29
Neigh   | 0          | 0          | 0          |   0.0 |  0.00
Comm    | 9.3577e-05 | 9.3577e-05 | 9.3577e-05 |   0.0 |  0.50
Output  | 0          | 0          | 0          |   0.0 |  0.00
Modify  | 0          | 0          | 0          |   0.0 |  0.00
Other   |            | 0.0007893  |            |       |  4.21

Nlocal:           6912 ave        6912 max        6912 min
Histogram: 1 0 0 0 0 0 0 0 0 0
Nghost:           7983 ave        7983 max        7983 min
Histogram: 1 0 0 0 0 0 0 0 0 0
Neighs:         297216 ave      297216 max      297216 min
Histogram: 1 0 0 0 0 0 0 0 0 0

Total # of neighbors = 297216
Ave neighs/atom = 43
Neighbor list builds = 0
Dangerous builds = 0
=== Phase 2: Equilibration at 300.0K ===
Setting up Verlet run ...
  Unit style    : metal
  Current step  : 0
  Time step     : 0.002
Per MPI rank memory allocation (min/avg/max) = 4.863 | 4.863 | 4.863 Mbytes
   Step          Temp          PotEng         Press           Pxx            Pyy            Pzz             Lx             Ly             Lz      
         0   300  unfix relax

print '=== Phase 2: Equilibration at 300.0K ==='
=== Phase 2: Equilibration at 300.0K ===
reset_timestep 0
velocity all create 300.0 57343 dist gaussian
fix eq all npt temp 300.0 300.0 0.1 tri 0.0 0.0 1.0
run 2500
Per MPI rank memory allocation (min/avg/max) = 4.863 | 4.863 | 4.863 Mbytes
   Step          Temp          PotEng         Press           Pxx            Pyy            Pzz             Lx             Ly             Lz      
         0   300           -27164.16       2439.006       2451.0201      2484.9927      2381.0052      48.960001      48.960001 00   305.44961     -26911.701      4461.1651      4577.6239      4390.1015      4415.77        49.059848      49.083402      49.089647    
       500   303.32467     -26870.223      237.4224       247.58883      208.72188      255.9565       49.13931       49.139975      49.167308    
       600   287.18608     -26876.362     -2186.2256     -2260.0178     -2296.2077     -2002.4513      49.151296      49.168884      49.187201    
       700   297.24861     -26894.541      618.29669      641.4242       711.15703      502.30884      49.102214      49.136248      49.15171     
       800   302.74192     -26885.535      119.08723      211.28081      91.784649      54.196243      49.117986      49.169437      49.133828    
       900   297.83264     -26879.174     -459.76753     -297.36293     -684.49471     -397.44496      49.116257      49.184529      49.148566    
      1000   294.69876     -26886.266      278.75214      387.26584      292.15324      156.83734      49.121173      49.122512      49.170032    
      1100   299.45712     -26889.265     -62.621597     -403.43433      137.16513      78.404413      49.169073      49.134388      49.117771    
      1200   296.35399     -26886.042     -73.547107      252.67491     -547.90486      74.588626      49.039767      49.267706      49.118485    
      1300   302.0673      -26885.161     -226.00943      32.956425     -196.80569     -514.17902      49.078729      49.136633      49.220494    
      1400   298.45456     -26887.497     -408.83191     -909.1374       161.1301      -478.48844      49.259176      49.003466      49.173284    
      1500   298.20326     -26887.9        1035.0551      1088.4229      565.18592      1451.5566      49.077865      49.241829      49.070031    
      1600   299.34845     -26887.412     -785.22879     -303.26881     -1228.1132     -824.30437      48.99844       49.258731      49.189255    
      1700   296.37261     -26882.212      399.94919      86.245332      875.35425      238.24799      49.199151      49.033028      49.186163    
      1800   302.96108     -26883.937     -615.46154     -859.40723     -652.86066     -334.11673      49.188914      49.135114      49.125249    
      1900   299.18718     -26887.388      675.48605      1060.6454      339.68003      626.13271      49.016308      49.218406      49.167525    
      2000   294.48573     -26887.609     -433.69378     -314.5214      -229.72791     -756.83202      49.108131      49.104874      49.22289     
      2100   298.44383     -26883.576     -240.06104     -703.80725      184.34183     -200.71769      49.21754       49.085746      49.135259    
      2200   303.72135     -26884.657      649.32695      968.244        130.13624      849.60062      49.043219      49.275307      49.090294    
      2300   303.82182     -26892.178      12.611795      459.40047     -6.7046892     -414.8604       49.035617      49.153339      49.228848    
      2400   299.43616     -26892.237     -105.16345     -526.37048      388.1187      -177.23857      49.212959      49.018315      49.188527    
      2500   305.43561     -26887.994     -50.211885     -88.072874     -364.48265      301.91987      49.129043      49.191469      49.106205    
Loop time of 8.17317 on 1 procs for 2500 steps with 6912 atoms

Performance: 52.856 ns/day, 0.454 hours/ns, 305.879 timesteps/s, 2.114 Matom-step/s
111.1% CPU use with 1 MPI tasks x 1 OpenMP threads

MPI task timing breakdown:
Section |  min time  |  avg time  |  max time  |%varavg| %total
-49.018315      49.188527    
      2500   305.43561     -26887.994     -50.211885     -88.072874     -364.48265      301.91987      49.129043      49.191469      49.106205    
Loop time of 8.17317 on 1 procs for 2500 steps with 6912 atoms

Performance: 52.856 ns/day, 0.454 hours/ns, 305.879 timesteps/s, 2.114 Matom-step/s
111.1% CPU use with 1 MPI tasks x 1 OpenMP threads

MPI task timing breakdown:
Section |  min time  |  avg time  |  max time  |%varavg| %total
---------------------------------------------------------------
Pair    | 7.7046     | 7.7046     | 7.7046         7983 min
Histogram: 1 0 0 0 0 0 0 0 0 0
Neighs:         297216 ave      297216 max      297216 min
Histogram: 1 0 0 0 0 0 0 0 0 0

Total # of neighbors = 297216
Ave neighs/atom = 43
Neighbor list builds = 0
Dangerous builds = 0
=== Phase 3: Tension ===
Neighbor list info ...
  update: every = 1 steps, delay = 10 steps, check = yes
  max neighbors/atom: 2000, page size: 100000
  master list distance cutoff = 7.55
  ghost atom cutoff = 7.55
  binsize = 3.775, bins = 14 14 14
  3 neighbor lists, perpetual/occasional/extra = 1 2 0
  (1) pair eam, perpetual
      attributes: half, newton on
      pair build: half/bin/atomonly/newton/tri
      stencil: half/bin/3d/tri
      bin: standard
  (2) compute cna/atom, occasional
      attributes: full, newton on
      pair build: full/bin/atomonly
      stencil: full/bin/3d
      bin: standard
  (3) compute centro/atom, occasional
      attributes: full, newton on
      pair build: full/bin/atomonly
      stencil: full/bin/3d
      bin: standard
Setting up Verlet run ...
  Unit style    : metal
  Current step  : 0
  Time step     : 0.002
Per MPI rank memory allocation (min/avg/max) = 6.883 | 6.883 | 6.883 Mbytes
   Step          Temp         v_strain       v_stress    v_stress_drop  v_drop_from_peak      Pxx            Pyy            Pzz             Lx             Ly             Lz      
         0   305.43561     -8.6817061e-16 -0.030191987    1.0408341e-17  0.030191987   -88.072874     -364.48265      301.91987      49.129043      49.191469      49.106205    
       100   298.19265      0.0001        -0.042171281    0.0059896474   0.042171281    19.746746      146.79549      421.71281      49.158502      49.145083      49.111116    
       200   296.11585      0.0002        -0.020897154   -0.010189654    0.020897154   -202.00879      158.50986      208.97154      49.176833      49.122325      49.116026    
       300   298.30618      0.0003        -0.061251213    0.022623305    0.061251213    591.3133       119.361        612.51213      49.10403       49.188463      49.120937    
       400   297.34243      0.0004        -0.047903492    0.0074204663   0.047903492    277.77536      176.07219      479.03492      49.141856      49.152503      49.125848    
       500   296.39952      0.0005         0.099752108   -0.11686261     0             -1671.1987     -1013.6906     -997.52108      49.215266      49.115849      49.130758    
       600   301.10202      0.0006         0.15338569    -0.14613959     0             -1617.1516     -1769.9254     -1533.8569      49.129464      49.22364       49.135669    
       700   298.20074      0.0007         0.027930974   -0.018099268    0.12545472    -364.32825     -391.27865     -279.30974      49.114681      49.188495      49.14058     
       800   301.76371      0.0008        -0.018717912    0.025377438    0.1721036     -43.077769      256.4185       187.17912      49.153873      49.112815      49.14549     
       900   302.44691      0.0009        -0.10033299     0.096293262    0.25371868     913.0851       1001.1618      1003.3299      49.129929      49.108376      49.150401    
      1000   296.91361      0.001         -0.14013531     0.12510125     0.293521       1640.4976      1424.6711      1401.3531      49.086344      49.14503       49.155311    
      1100   301.02683      0.0011        -0.0022849784  -0.0087604492   0.15567067    -127.3017      -271.97384      22.849784      49.116682      49.149199      49.160222    
      1200   301.22505      0.0012         0.16483137    -0.15730394     0             -1882.0741     -1601.1375     -1648.3137      49.187084      49.119529      49.165133    
      1300   306.26375      0.0013         0.076578942   -0.055268501    0.088252427   -538.02195     -610.99743     -765.78942      49.14467       49.130232      49.170043    
      1400   297.10209      0.0014        -0.096667792    0.1131018      0.26149916     1259.1509      1210.4478      966.67792      49.118875      49.101127      49.174954    
      1500   300.04712      0.0015        -0.042055613    0.044308851    0.20688698     612.26484      779.95116      420.55613      49.131024      49.094477      49.179864    
      1600   306.62572      0.0016         0.024558261   -0.035187766    0.14027311    -177.84005     -143.39816     -245.58261      49.122389      49.125439      49.184775    
      1700   299.19494      0.0017        -0.023780928    0.007980233    0.1886123      582.1619       484.00576      237.80928      49.115193      49.110986      49.189686    
      1800   293.09628      0.0018         0.032349674   -0.043043611    0.13248169     17.530691     -4.5738834     -323.49674      49.121658      49.10746       49.194596    
      1900   300.66259      0.0019         0.17839341    -0.1612147      0             -1460.168      -1940.5435     -1783.9341      49.102996      49.171633      49.199507    
      2000   303.45544      0.002          0.088340528   -0.048314241    0.090052877   -530.47089     -472.59777     -883.40528      49.119755      49.122243      49.204418    
      2100   296.09927      0.0021        -0.079268389    0.11159634     0.25766179     1181.8212      1046.5111      792.68389      49.097451      49.094073      49.209328    
      2200   299.85675      0.0022         0.023736744   -0.0055182606   0.15465666     90.46994       233.43569     -237.36744      49.094179      49.114679      49.214239    
      2300   298.32074      0.0023         0.015339602   -0.0032450523   0.1630538     -48.761948      165.16949     -153.39602      49.093699      49.11121       49.219149    
      2400   303.28177      0.0024         0.03347149    -0.0083630125   0.14492192     340.79051      150.06611     -334.7149       49.076375      49.123374      49.22406     
      2500   299.67609      0.0025         0.10329539    -0.063651812    0.075098016   -563.1549      -697.12721     -1032.9539      49.110119      49.097986      49.228971    
      2600   300.55682      0.0026         0.10030712    -0.053088654    0.078086288   -715.9799      -372.98591     -1003.0712      49.127941      49.084498      49.233881    
      2700   301.1423       0.0027        -0.006461211    0.055411646    0.18485462     936.6075       569.96599      64.61211       49.030752      49.143221      49.238792    
      2800   300.98949      0.0028         0.031894505    0.017010413    0.1464989      580.99765      421.42785     -318.94505      49.075886      49.097126      49.243703    
      2900   299.58029      0.0029         0.047868647   -0.012016205    0.13052476    -221.73176      391.88416     -478.68647      49.128166      49.050018      49.248613    
      3000   300.94754      0.003          0.092865694   -0.056560735    0.085527711    23.788688     -403.0633      -928.65694      49.016006      49.168832      49.253524    
      3100   301.90255      0.0031         0.098721559   -0.044617605    0.079671846   -162.90804     -531.17916     -987.21559      49.030162      49.152104      49.258434    
      3200   299.36026      0.0032         0.045258829    0.010997333    0.13313458    -69.20528       596.6505      -452.58829      49.148485      49.019217      49.263345    
      3300   295.00298      0.0033         0.04699676     0.012425118    0.13139665     621.73097      461.22372     -469.9676       49.057843      49.08888       49.268256    
      3400   299.93274      0.0034         0.16517918    -0.092586536    0.013214222   -463.00242     -1410.4024     -1651.7918      48.987372      49.196045      49.273166    
      3500   300.77418      0.0035         0.17004855    -0.090780587    0.0083448543  -1221.355      -615.10593     -1700.4855      49.137619      49.045547      49.278077    
      3600   299.40094      0.0036         0.024844987    0.046876763    0.15354842     253.23739      684.40614     -248.44987      49.119849      49.02601       49.282988    
      3700   297.17026      0.0037         0.066404507    0.012603815    0.1119889      746.13055      273.87057     -664.04507      48.997033      49.137462      49.287898    
      3800   298.03194      0.0038         0.10151472    -0.015544373    0.076878689    47.864771     -36.414458     -1015.1472      49.039518      49.101769      49.292809    
      3900   299.80182      0.0039         0.15753043    -0.060593912    0.020862972   -1011.3416     -656.58632     -1575.3043      49.115816      49.056669      49.297719    
      4000   302.97628      0.004          0.15818999    -0.05472104     0.020203414   -537.25765     -626.72675     -1581.8999      49.037625      49.119045      49.30263     
      4100   300.88197      0.0041         0.088034582    0.014365672    0.090358823    135.02001     -115.1709      -880.34582      49.00342       49.121998      49.307541    
      4200   299.37223      0.0042         0.027449967    0.0731694      0.15094344     1002.8809      874.54265     -274.49967      49.054206      49.04341       49.312451    
      4300   301.9708       0.0043         0.019811288    0.078089533    0.15858212     699.03082      1023.2788     -198.11288      49.091153      49.009333      49.317362    
      4400   303.91941      0.0044         0.17007594    -0.071685444    0.0083174647  -559.71516     -700.32122     -1700.7594      49.0171        49.108034      49.322272    
      4500   297.81318      0.0045         0.19427148    -0.09345869     0             -565.38335     -1015.3988     -1942.7148      48.982911      49.147611      49.327183    
      4600   296.97688      0.0046         0.13141804    -0.019947942    0.062853443   -171.12268      22.552735     -1314.1804      49.087477      49.026001      49.332094    
      4700   306.45795      0.0047         0.10418969     0.011058922    0.090081789    55.728257      408.59403     -1041.8969      49.101443      49.00419       49.337004    
      4800   303.88093      0.0048         0.10579888     0.0098781523   0.088472603    657.95373     -59.925407     -1057.9888      48.950581      49.141653      49.341915    
      4900   296.31399      0.0049         0.05419313     0.051150168    0.14007835     800.44422      587.07956     -541.9313       49.001922      49.068014      49.346826    
      5000   302.28062      0.005          0.10688639    -0.0066734559   0.087385085   -305.4802       496.11131     -1068.8639      49.129077      48.954193      49.351736    
      5100   305.20213      0.0051         0.18394519    -0.074141195    0.010326284   -414.3043      -528.62473     -1839.4519      48.99177       49.113791      49.356647    
      5200   298.5824       0.0052         0.16373496    -0.040302461    0.03053652    -61.646148     -806.25838     -1637.3496      48.931451      49.159762      49.361557    
      5300   295.01919      0.0053         0.14728231    -0.011102709    0.046989169   -226.90634      23.686092     -1472.8231      49.041524      49.031228      49.366468    
      5400   300.62637      0.0054         0.11417337     0.016415973    0.080098108    128.91958      221.72666     -1141.7337      49.044901      49.022215      49.371379    
      5500   299.93342      0.0055         0.13660208    -0.011779677    0.057669398    175.29346      0.59860332    -1366.0208      48.996432      49.068497      49.376289    
      5600   310.02984      0.0056         0.12677187    -0.0024140802   0.067499612    148.5942       211.35055     -1267.7187      48.992418      49.059363      49.3812      
      5700   299.35294      0.0057         0.077240077    0.04442275     0.1170314      517.02073      733.36557     -772.40077      49.020364      49.01567       49.386111    
      5800   297.17139      0.0058         0.11551689     0.0071177333   0.078754585    364.20192      462.07047     -1155.1689      49.044751      48.995304      49.391021    
      5900   300.63528      0.0059         0.23640805    -0.095551933    0             -786.66867     -778.77136     -2364.0805      49.030055      49.034664      49.395932    
      6000   301.35642      0.006          0.27269027    -0.11525376     0             -1046.8919     -1315.8039     -2726.9027      48.994888      49.084452      49.400842    
      6100   301.0668       0.0061         0.12408745     0.027363286    0.14860282     217.19285      419.57511     -1240.8745      49.035193      48.991171      49.405753    
      6200   301.37933      0.0062         0.027537913    0.11029312     0.24515235     1432.0065      1738.7753     -275.37913      49.055611      48.931217      49.410664    
      6300   300.79266      0.0063         0.092041228    0.040265692    0.18064904     831.55392      860.70534     -920.41228      48.993858      49.011543      49.415574    
      6400   302.64265      0.0064         0.24742999    -0.10179741     0.025260276   -392.76107     -980.85987     -2474.2999      48.967822      49.082417      49.420485    
      6500   298.4448       0.0065         0.30415535    -0.14176744     0             -1735.038      -1216.456      -3041.5535      49.060698      49.002767      49.425396    
      6600   296.34436      0.0066         0.1857047     -0.017423507    0.11845065    -301.91742     -299.53896     -1857.047       49.009322      49.005057      49.430306    
      6700   301.41235      0.0067         0.068202004    0.099175381    0.23595334     1471.6214      1269.8266     -682.02004      48.957813      49.012589      49.435217    
      6800   304.10253      0.0068         0.11987058     0.04794217     0.18428476     753.335        683.45372     -1198.7058      48.988348      48.997216      49.440127    
      6900   297.94473      0.0069         0.23179998    -0.064448032    0.07235537    -446.95586     -421.41384     -2317.9998      49.018116      48.994373      49.445038    
      7000   294.79943      0.007          0.22352862    -0.061092839    0.080626728   -338.73906     -659.23256     -2235.2862      49.009625      48.996047      49.449949    
      7100   300.45801      0.0071         0.21435379    -0.042891373    0.08980156    -549.11646     -117.78345     -2143.5379      49.053171      48.951268      49.454859    
      7200   296.71258      0.0072         0.1949545     -0.0067504291   0.10920084     322.78919      226.88541     -1949.545       48.994635      48.993209      49.45977     
      7300   295.96094      0.0073         0.19704357     0.0016607357   0.10711177     403.20371      98.679327     -1970.4357      48.938426      49.033599      49.46468     
      7400   301.46563      0.0074         0.24443236    -0.046027816    0.059722986   -145.79838     -349.85444     -2444.3236      48.997807      48.992641      49.469591    
      7500   295.30507      0.0075         0.25548382    -0.061946425    0.04867153    -617.3043      -383.56363     -2554.8382      49.075019      48.921492      49.474502    
      7600   295.98998      0.0076         0.32236105    -0.11515803     0             -1429.3867     -1079.6242     -3223.6105      49.02988       48.978645      49.479412    
      7700   298.91182      0.0077         0.28541128    -0.056487326    0.036949773   -195.50208     -1104.7636     -2854.1128      48.883751      49.096406      49.484323    
      7800   302.53317      0.0078         0.11600608     0.11253142     0.20635497     1019.9043      1013.1591     -1160.0608      48.961265      48.972278      49.489234    
      7900   298.16515      0.0079         0.11378457     0.1029514      0.20857649     744.3833       1402.3731     -1137.8457      49.050681      48.87526       49.494144    
      8000   304.74216      0.008          0.19961617     0.014728553    0.12274489     357.32981      504.37785     -1996.1617      48.976207      48.965365      49.499055    
      8100   301.85597      0.0081         0.23498699    -0.018578947    0.087374068    119.23598     -267.17315     -2349.8699      48.934667      49.018346      49.503965    
      8200   294.07037      0.0082         0.29354323    -0.067276318    0.028817824   -644.66274     -520.68685     -2935.4323      49.000176      48.959348      49.508876    
      8300   300.59157      0.0083         0.32587219    -0.086722419    0             -1001.2121     -915.32241     -3258.7219      49.014777      48.954068      49.513787    
      8400   304.14918      0.0084         0.30049733    -0.055741056    0.025374867   -294.93113     -587.73482     -3004.9733      48.956893      48.991622      49.518697    
      8500   294.87412      0.0085         0.15873073     0.076350235    0.16714147     1049.5256      815.0317      -1587.3073      48.937715      48.961069      49.523608    
      8600   299.10265      0.0086         0.12758591     0.088017541    0.19828629     939.58998      1522.072      -1275.8591      48.991686      48.89272       49.528519    
      8700   300.64935      0.0087         0.18473367     0.020802015    0.14113852     700.08555      767.42844     -1847.3367      48.943275      48.963365      49.533429    
      8800   297.74287      0.0088         0.44769271    -0.20898836     0             -1551.3508     -2189.0381     -4476.9271      48.907212      49.067357      49.53834     
      8900   294.16292      0.0089         0.46211881    -0.18858104     0             -2344.7992     -2103.1158     -4621.1881      49.015384      48.955061      49.54325     
      9000   297.06212      0.009          0.22120503     0.054491631    0.24091378     189.43314      591.66355     -2212.0503      49.027283      48.86808       49.548161    
      9100   300.37882      0.0091         0.13254948     0.13290343     0.32956933     1520.3279      1409.0733     -1325.4948      48.903363      48.959988      49.553072    
      9200   302.8047       0.0092         0.22921293     0.029806949    0.23290588     553.60249      316.4058      -2292.1293      48.884607      49.001785      49.557982    
      9300   296.17153      0.0093         0.30000987    -0.043576223    0.16210894    -383.27941     -271.05044     -3000.0987      48.965944      48.934554      49.562893    
      9400   302.66118      0.0094         0.34503143    -0.084144375    0.11708738    -943.62829     -666.75725     -3450.3143      48.989334      48.925171      49.567804    
      9500   307.69389      0.0095         0.36186494    -0.080664461    0.10025387    -711.7578      -865.69684     -3618.6494      48.919968      48.997135      49.572714    
      9600   299.48919      0.0096         0.17942069     0.10696326     0.28269812     1435.6823      1155.6577     -1794.2069      48.885296      48.963101      49.577625    
      9700   300.64332      0.0097         0.073229879    0.2020037      0.38888893     2073.9393      2480.3632     -732.29879      48.953738      48.849359      49.582535    
      9800   303.53085      0.0098         0.24582825     0.0092188803   0.21629056     362.11493      563.38846     -2458.2825      48.948038      48.905125      49.587446    
      9900   306.19992      0.0099         0.4364338     -0.18395517     0.025685012   -993.70428     -1824.9698     -4364.338       48.896403      49.013176      49.592357    
     10000   299.43521      0.01           0.40096964    -0.13051455     0.061149173   -1124.7246     -989.56473     -4009.6964      48.993062      48.899463      49.597267    
     10100   298.66144      0.0101         0.24419        0.037429146    0.21792881     356.80864      704.41853     -2441.9         48.99594       48.84907       49.602178    
     10200   306.72309      0.0102         0.2475109      0.035938038    0.21460791     863.52655      516.2869      -2475.109       48.884675      48.950438      49.607088    
     10300   305.4181       0.0103         0.24387104     0.033964014    0.21824777     818.81257      628.66161     -2438.7104      48.885618      48.939017      49.611999    
     10400   297.14227      0.0104         0.15981776     0.099495931    0.30230105     1551.7746      2134.7679     -1598.1776      48.978858      48.812526      49.61691     
     10500   297.69249      0.0105         0.31652224    -0.06174282     0.14559657     227.21579     -97.073476     -3165.2224      48.926789      48.918911      49.62182     
     10600   301.92614      0.0106         0.56766941    -0.27406512     0             -2566.3184     -2667.8541     -5676.6941      48.901072      49.023969      49.626731    
     10700   301.92159      0.0107         0.47710003    -0.14310872     0.090569378   -1715.5081     -1834.5282     -4771.0003      48.927485      48.954859      49.631642    
     10800   295.92055      0.0108         0.29302639     0.045684732    0.27464302     262.5574       440.90999     -2930.2639      48.947151      48.869845      49.636552    
     10900   303.08628      0.0109         0.24904333     0.070928748    0.31862609     839.31014      1074.2369     -2490.4333      48.913065      48.882281      49.641463    
     11000   301.88657      0.011          0.26887186     0.03789044     0.29879756     1063.5511      604.09753     -2688.7186      48.85266       48.938793      49.646373    
     11100   294.17425      0.0111         0.29356198     0.018137517    0.27410743     663.76323      534.73815     -2935.6198      48.886785      48.900643      49.651284    
     11200   300.08765      0.0112         0.38176719    -0.056642071    0.18590222    -717.29706     -412.5869      -3817.6719      48.942752      48.877363      49.656195    
     11300   301.4452       0.0113         0.43903519    -0.09439365     0.12863422    -941.67475     -1211.6457     -4390.3519      48.908198      48.929186      49.661105    
     11400   296.27491      0.0114         0.33288305     0.029065015    0.23478636    -238.64115      61.627928     -3328.8305      48.883497      48.921652      49.666016    
     11500   299.00818      0.0115         0.29726482     0.062757502    0.27040459     502.44458      457.11347     -2972.6482      48.842773      48.933979      49.670927    
     11600   302.931        0.0116         0.32582864     0.010009609    0.24184077     438.17762      235.6556      -3258.2864      48.885748      48.89977       49.675837    
     11700   302.50971      0.0117         0.32868614    -0.0076892843   0.23898327     80.223972      467.49667     -3286.8614      48.94519       48.837839      49.680748    
     11800   298.33155      0.0118         0.37111192    -0.042306506    0.19655749    -234.80264     -364.33668     -3711.1192      48.879311      48.910775      49.685658    
     11900   295.69389      0.0119         0.38204669    -0.039940943    0.18562272    -112.93999     -612.4121      -3820.4669      48.817478      48.971251      49.690569    
     12000   302.3733       0.012          0.38933671    -0.035184481    0.1783327     -556.89495     -24.863341     -3893.3671      48.946038      48.833286      49.69548     
     12100   301.99341      0.0121         0.31977032     0.037002749    0.24789909     349.23214      717.11949     -3197.7032      48.93863       48.821917      49.70039     
     12200   298.92199      0.0122         0.30073808     0.047932078    0.26693133     1045.511       401.53563     -3007.3808      48.778951      48.962161      49.705301    
     12300   294.57223      0.0123         0.36452476    -0.023305647    0.20314465     60.380789     -38.869717     -3645.2476      48.847915      48.911804      49.710212    
     12400   297.19843      0.0124         0.4188863     -0.069066863    0.14878311    -1014.4427     -207.3332      -4188.863       48.945873      48.830964      49.715122    
     12500   303.66365      0.0125         0.44915063    -0.084142614    0.11851878    -782.77939     -1281.1691     -4491.5063      48.834283      48.947518      49.720033    
     12600   301.13874      0.0126         0.38024292    -0.0097934725   0.18742649     98.974157     -268.76777     -3802.4292      48.808914      48.938779      49.724943    
     12700   301.53115      0.0127         0.24867124     0.11377672     0.31899818     1331.3003      1781.551      -2486.7124      48.878816      48.813408      49.729854    
     12800   303.91514      0.0128         0.30032429     0.0550449      0.26734512     985.77901      1024.5703     -3003.2429      48.845766      48.858575      49.734765    
     12900   301.48004      0.0129         0.39422424    -0.037637292    0.17344517     140.8289      -63.110911     -3942.2424      48.809164      48.923635      49.739675    
     13000   297.37583      0.013          0.4465839     -0.084272235    0.12108551    -329.16522     -383.11901     -4465.839       48.850568      48.88654       49.744586    
     13100   299.2985       0.0131         0.47835683    -0.10018651     0.089312579   -871.84934     -496.67652     -4783.5683      48.904519      48.847858      49.749496    
     13200   300.80842      0.0132         0.40141932    -0.013180876    0.16625009    -210.77797     -126.38259     -4014.1932      48.859465      48.866368      49.754407    
     13300   299.44045      0.0133         0.39911165    -0.0074145202   0.16855776     178.55479     -243.2009      -3991.1165      48.815759      48.896425      49.759318    
     13400   304.65676      0.0134         0.38225302     0.0057807876   0.18541639     384.83313      600.96988     -3822.5302      48.860691      48.841317      49.764228    
     13500   297.78215      0.0135         0.35468161     0.023905293    0.2129878      646.38766      532.96859     -3546.8161      48.870716      48.814287      49.769139    
     13600   297.40907      0.0136         0.43150186    -0.04778906     0.13616755    -191.15259     -72.447405     -4315.0186      48.879752      48.821158      49.77405     
     13700   296.13102      0.0137         0.46137064    -0.0563879      0.10629877    -395.76617     -571.66908     -4613.7064      48.826997      48.892363      49.77896     
     13800   299.37983      0.0138         0.51273633    -0.08651239     0.054933081   -999.52617     -1073.6113     -5127.3633      48.827379      48.898985      49.783871    
     13900   299.7391       0.0139         0.54106435    -0.1001564      0.02660506    -1083.3823     -707.33984     -5410.6435      48.878066      48.839899      49.788781    
     14000   302.70103      0.014          0.38771347     0.047307439    0.17995594     617.53447      515.06152     -3877.1347      48.828082      48.845017      49.793692    
     14100   302.55715      0.0141         0.34463694     0.07701198     0.22303247     905.77669      796.96803     -3446.3694      48.797122      48.857569      49.798603    
     14200   303.76736      0.0142         0.40217643     0.019548198    0.16549298     615.5685       472.20309     -4021.7643      48.816504      48.835677      49.803513    
     14300   306.40827      0.0143         0.37891865     0.040786677    0.18875076     566.50865      578.63534     -3789.1865      48.847635      48.807022      49.808424    
     14400   302.42816      0.0144         0.48043944    -0.050915465    0.087229975   -97.888847     -112.90383     -4804.3944      48.837842      48.837713      49.813335    
     14500   298.15841      0.0145         0.47680045    -0.035064596    0.09086896    -48.508903     -256.00879     -4768.0045      48.806742      48.85515       49.818245    
     14600   300.35653      0.0146         0.45877284    -0.01430989     0.10889657    -51.470133     -27.248665     -4587.7284      48.85106       48.803705      49.823156    
     14700   302.09338      0.0147         0.44054301     0.0018371821   0.1271264     -92.067776      200.89176     -4405.4301      48.882587      48.771128      49.828066    
     14800   298.98964      0.0148         0.45932212    -0.022283348    0.10834729     149.17011      267.77073     -4593.2212      48.807629      48.838814      49.832977    
     14900   297.45625      0.0149         0.45821086    -0.029457438    0.10945855     846.08939      113.43556     -4582.1086      48.725619      48.909015      49.837888    
     15000   298.90078      0.015          0.42051053     0.011522596    0.14715888     244.45113      563.58287     -4205.1053      48.84169       48.795415      49.842798    
     15100   298.17475      0.0151         0.62372749    -0.16378531     0             -1740.8308     -1214.4327     -6237.2749      48.922054      48.761963      49.847709    
     15200   298.50733      0.0152         0.65791577    -0.17239965     0             -1862.2009     -2118.0995     -6579.1577      48.802406      48.876057      49.85262     
     15300   294.03186      0.0153         0.45010893     0.042526212    0.20780684     769.93583      309.14601     -4501.0893      48.748071      48.871798      49.85753     
     15400   299.83874      0.0154         0.38934075     0.094184525    0.26857502     1098.4792      1596.8858     -3893.4075      48.85506       48.736413      49.862441    
     15500   298.40649      0.0155         0.47350511     0.0096906314   0.18441066    -101.98311      207.68198     -4735.0511      48.836637      48.775241      49.867351    
     15600   303.02931      0.0156         0.55960279    -0.066324055    0.098312977   -469.40187     -1009.8797     -5596.0279      48.770968      48.869236      49.872262    
     15700   299.46004      0.0157         0.61466686    -0.10397574     0.043248911   -1222.7146     -1151.8974     -6146.6686      48.818476      48.826286      49.877173    
     15800   298.09981      0.0158         0.47681056     0.035629405    0.18110521     101.21063      513.61738     -4768.1056      48.855334      48.743423      49.882083    
     15900   296.339        0.0159         0.43219139     0.077646629    0.22572438     1066.7182      1138.4472     -4321.9139      48.796294      48.78278       49.886994    
     16000   300.52433      0.016          0.52189549    -0.0019189805   0.13602027    -77.714778     -368.0385      -5218.9549      48.749032      48.857239      49.891904    
     16100   292.71446      0.0161         0.62931166    -0.10877673     0.028604103   -1140.5106     -1221.4973     -6293.1166      48.805714      48.822823      49.896815    
     16200   294.50668      0.0162         0.59668622    -0.082274246    0.061229544   -1018.6715     -500.73549     -5966.8622      48.863804      48.753738      49.901726    
     16300   303.57594      0.0163         0.51203635     0.0085683682   0.14587942    -86.803495     -119.52724     -5120.3635      48.800767      48.789083      49.906636    
     16400   299.40043      0.0164         0.42828009     0.096218559    0.22963567     1302.7643      738.78695     -4282.8009      48.700054      48.85049       49.911547    
     16500   297.64556      0.0165         0.41380673     0.10472208     0.24410903     1422.0999      1164.0912     -4138.0673      48.745985      48.79434       49.916458    
     16600   299.1757       0.0166         0.59156637    -0.069841199    0.066349394   -847.09539     -436.74688     -5915.6637      48.866798      48.718317      49.921368    
     16700   300.578        0.0167         0.68793551    -0.15888347     0             -1584.2457     -1757.2858     -6879.3551      48.801448      48.816001      49.926279    
     16800   299.1476       0.0168         0.54439094    -0.008580864    0.14354457     248.7307      -162.2562      -5443.9094      48.711775      48.864499      49.931189    
     16900   298.34519      0.0169         0.51232477     0.031498646    0.17561074     380.88256      424.21869     -5123.2477      48.751767      48.797051      49.9361      
     17000   300.86269      0.017          0.5837841     -0.033771821    0.10415142    -497.61105     -277.98378     -5837.841       48.811252      48.752845      49.941011    
     17100   298.82555      0.0171         0.57847046    -0.033542303    0.10946505    -514.17978      0.30213652    -5784.7046      48.800576      48.7632        49.945921    
     17200   300.95865      0.0172         0.52037365     0.016923246    0.16756186     539.20181      70.874773     -5203.7365      48.696507      48.8395        49.950832    
     17300   297.18631      0.0173         0.51230781     0.025016234    0.1756277      483.14075      458.2798      -5123.0781      48.739101      48.781505      49.955743    
     17400   301.19191      0.0174         0.50671981     0.038448205    0.1812157      204.96146      796.66326     -5067.1981      48.837671      48.685367      49.960653    
     17500   300.22277      0.0175         0.55816265     0.0014409538   0.12977286    -42.039869     -135.40483     -5581.6265      48.761866      48.772866      49.965564    
     17600   301.16669      0.0176         0.69348064    -0.12368561     0             -1249.9641     -1810.0365     -6934.8064      48.669591      48.891554      49.970474    
     17700   301.7641       0.0177         0.59682349    -0.036139655    0.096657153   -240.89675     -325.98806     -5968.2349      48.746385      48.788145      49.975385    
     17800   301.09417      0.0178         0.38817091     0.15689092     0.30530973     1294.2071      2118.3026     -3881.7091      48.840432      48.636335      49.980296    
     17900   300.47061      0.0179         0.4595175      0.080263606    0.23396314     1204.9694      1007.0981     -4595.175       48.723819      48.754415      49.985206    
     18000   295.01912      0.018          0.57365456    -0.034886416    0.11982608     208.78238     -381.30649     -5736.5456      48.65249       48.852766      49.990117    
     18100   298.78085      0.0181         0.6741258     -0.12579212     0.019354835   -995.75318     -1074.2609     -6741.258       48.784095      48.747256      49.995028    
     18200   301.73482      0.0182         0.67639379    -0.1124581      0.017086846   -1425.8293     -772.66617     -6763.9379      48.881218      48.650333      49.999938    
     18300   299.95711      0.0183         0.56446155     0.0046895203   0.12901909     476.71228      525.32884     -5644.6155      48.755393      48.732767      50.004849    
     18400   299.83454      0.0184         0.54283739     0.029925442    0.15064325     1034.2906      421.63077     -5428.3739      48.660225      48.801666      50.009759    
     18500   304.72587      0.0185         0.56803803     0.0057123335   0.12544261     489.73956      438.99708     -5680.3803      48.755997      48.714967      50.01467     
     18600   296.96133      0.0186         0.53058485     0.026875939    0.16289579     491.36332      1002.9231     -5305.8485      48.813717      48.652163      50.019581    
     18700   301.17645      0.0187         0.63337975    -0.072263339    0.060100887   -246.42041     -268.97787     -6333.7975      48.732694      48.76259       50.024491    
     18800   299.43955      0.0188         0.71381379    -0.12013309     0             -969.23445     -1323.6906     -7138.1379      48.663801      48.848833      50.029402    
     18900   298.89658      0.0189         0.69220811    -0.075258342    0.021605685   -867.62941     -1032.7413     -6922.0811      48.721324      48.773205      50.034312    
     19000   302.10825      0.019          0.58800521     0.030379622    0.12580858     9.27113        743.30241     -5880.0521      48.802405      48.656137      50.039223    
     19100   299.80023      0.0191         0.44811939     0.14766479     0.2656944      1921.99        1912.9835     -4481.1939      48.675721      48.73534       50.044134    
     19200   302.95188      0.0192         0.58554623     0.0011531972   0.12826756     622.94461      43.297917     -5855.4623      48.613106      48.827802      50.049044    
     19300   300.01284      0.0193         0.75563251    -0.14981598     0             -1702.5485     -1281.967      -7556.3251      48.766702      48.726217      50.053955    
     19400   299.94872      0.0194         0.72294898    -0.099121291    0.032683531   -1411.5475     -992.71641     -7229.4898      48.832467      48.662058      50.058866    
     19500   301.29642      0.0195         0.66639637    -0.032732856    0.089236132   -249.24555     -214.34276     -6663.9637      48.708871      48.759536      50.063776    
     19600   302.85636      0.0196         0.55828684     0.078146874    0.19734566     1446.2781      573.91971     -5582.8684      48.577627      48.832402      50.068687    
     19700   301.39538      0.0197         0.4888778      0.13310573     0.26675471     1642.1759      1813.6649     -4888.778       48.722366      48.656151      50.073597    
     19800   304.11576      0.0198         0.6036082      0.007354762    0.15202431    -50.240637      1086.6212     -6036.082       48.845334      48.567253      50.078508    
     19900   303.10957      0.0199         0.71905037    -0.10540318     0.036582139   -551.44456     -973.59927     -7190.5037      48.674088      48.777422      50.083419    
     20000   295.40796      0.02           0.70396735    -0.078723942    0.051665161   -339.77311     -1026.4259     -7039.6735      48.60101       48.837734      50.088329    
     20100   299.84156      0.0201         0.68528596    -0.036325902    0.070346544   -498.78115     -257.32774     -6852.8596      48.751278      48.677865      50.09324     
     20200   303.82414      0.0202         0.63624154     0.017788049    0.11939096    -111.60592      587.17234     -6362.4154      48.809804      48.608448      50.098151    
     20300   306.84062      0.0203         0.60708482     0.032090004    0.14854769     534.98866      469.6949      -6070.8482      48.66556       48.73212       50.103061    
     20400   301.60326      0.0204         0.58780417     0.037856174    0.16782834     1163.5008      503.15071     -5878.0417      48.598491      48.780678      50.107972    
     20500   299.24038      0.0205         0.65004155    -0.026016693    0.10559095    -49.350396      122.188       -6500.4155      48.738         48.656107      50.112882    
     20600   301.63938      0.0206         0.72943716    -0.088297266    0.02619535    -1123.6357     -557.59447     -7294.3716      48.800674      48.628699      50.117793    
     20700   302.18609      0.0207         0.70974229    -0.046515948    0.045890218   -244.05288     -658.93557     -7097.4229      48.659587      48.752027      50.122704    
     20800   298.66013      0.0208         0.67443832    -0.0041289675   0.081194187    547.63034     -97.331087     -6744.3832      48.619425      48.763763      50.127614    
     20900   303.66466      0.0209         0.61318664     0.046536344    0.14244587     441.37498      983.73103     -6131.8664      48.772348      48.586555      50.132525    
     21000   305.29711      0.021          0.61675631     0.034245568    0.1388762      623.85524      850.39635     -6167.5631      48.779306      48.587393      50.137435    
     21100   299.58281      0.0211         0.69355674    -0.041727788    0.062075765    263.55871     -311.58915     -6935.5674      48.607034      48.771433      50.142346    
     21200   297.69342      0.0212         0.7582703     -0.094238473    0             -428.01141     -1124.3785     -7582.703       48.586177      48.806214      50.147257    
     21300   301.6423       0.0213         0.82614034    -0.14020296     0             -1473.9084     -639.71778     -8261.4034      48.778178      48.61227       50.152167    
     21400   304.90713      0.0214         0.6181837      0.070791637    0.20795664     662.51309      1133.18       -6181.837       48.742005      48.591746      50.157078    
     21500   293.57104      0.0215         0.55233559     0.12686915     0.27380475     2104.0627      1393.8072     -5523.3559      48.551411      48.759516      50.161989    
     21600   303.61603      0.0216         0.75719728    -0.075216526    0.068943064   -259.0297      -503.72635     -7571.9728      48.604381      48.763473      50.166899    
     21700   307.94183      0.0217         0.83004084    -0.13603024     0             -1902.3152     -1297.574      -8300.4084      48.779827      48.618307      50.17181     
     21800   299.35299      0.0218         0.73277461    -0.032930375    0.097266232   -166.80787      107.79282     -7327.7461      48.737308      48.610663      50.17672     
     21900   297.63832      0.0219         0.64373943     0.059160079    0.18630141     1261.797       752.16491     -6437.3943      48.605177      48.704905      50.181631    
     22000   307.27152      0.022          0.72046908    -0.0071982934   0.10957176     207.91781      160.31352     -7204.6908      48.661866      48.671906      50.186542    
     22100   304.5249       0.0221         0.78949175    -0.066627463    0.040549085   -894.73258     -321.26888     -7894.9175      48.747213      48.601494      50.191452    
     22200   299.41018      0.0222         0.71350653     0.0048813877   0.11653431     501.91657      331.10307     -7135.0653      48.672762      48.640425      50.196363    
     22300   305.30249      0.0223         0.61533579     0.081971665    0.21470504     1586.4517      1471.9859     -6153.3579      48.631793      48.650969      50.201274    
     22400   298.47551      0.0224         0.7152842     -0.0082666909   0.11475664     345.37044      460.02005     -7152.842       48.678345      48.638243      50.206184    
     22500   297.61594      0.0225         0.91161758    -0.16867187     0             -1749.5034     -1514.3036     -9116.1758      48.710708      48.646375      50.211095    
     22600   300.77548      0.0226         0.92668385    -0.16678948     0             -1749.8283     -1500.154      -9266.8385      48.689724      48.67098       50.216005    
     22700   298.8453       0.0227         0.74651618     0.0050257254   0.18016767     166.26723      105.52712     -7465.1618      48.626052      48.687386      50.220916    
     22800   304.33262      0.0228         0.69663927     0.051289099    0.23004458     720.62291      479.15533     -6966.3927      48.628192      48.659713      50.225827    
     22900   301.4858       0.0229         0.68925523     0.063224714    0.23742861     1022.8005      1130.72       -6892.5523      48.684277      48.582082      50.230737    
     23000   303.58908      0.023          0.66252064     0.084164464    0.26416321     1093.8761      1319.5877     -6625.2064      48.684086      48.574856      50.235648    
     23100   299.27142      0.0231         0.81466063    -0.065458644    0.11202321    -265.50804     -494.00635     -8146.6063      48.633968      48.662279      50.240559    
     23200   296.97535      0.0232         0.89599037    -0.12853999     0.030693479   -1438.909      -1790.9502     -8959.9037      48.642104      48.695502      50.245469    
     23300   299.48308      0.0233         0.87004086    -0.077119984    0.05664298    -1313.132      -1118.0553     -8700.4086      48.693418      48.628864      50.25038     
     23400   298.15837      0.0234         0.76177833     0.035791961    0.16490551     196.7452       592.03936     -7617.7833      48.667373      48.595341      50.25529     
     23500   298.18868      0.0235         0.73496932     0.044936151    0.19171453     796.24176      531.24211     -7349.6932      48.609619      48.643863      50.260201    
     23600   298.2824       0.0236         0.77977532    -0.014560704    0.14690853     171.47471     -36.405174     -7797.7532      48.639413      48.627245      50.265112    
     23700   301.02994      0.0237         0.87101453    -0.093350076    0.05566932    -920.32555     -463.22834     -8710.1453      48.717504      48.567869      50.270022    
     23800   297.56023      0.0238         0.80822197    -0.019399247    0.11846188    -380.18267     -140.95165     -8082.2197      48.687725      48.583792      50.274933    
     23900   295.99065      0.0239         0.78190069     0.016186579    0.14478316     359.42703      145.97118     -7819.0069      48.588539      48.652384      50.279843    
     24000   296.71188      0.024          0.75497854     0.052354519    0.17170531     687.74927      345.91956     -7549.7854      48.57751       48.650822      50.284754    
     24100   303.64576      0.0241         0.81638196    -0.008876769    0.11030189     118.47214      34.892249     -8163.8196      48.656049      48.59272       50.289665    
     24200   298.16927      0.0242         0.87771007    -0.072032912    0.048973776   -879.81902     -615.80081     -8777.1007      48.70243       48.558201      50.294575    
     24300   303.80388      0.0243         0.85709507    -0.052712495    0.069588773   -331.10069     -505.21849     -8570.9507      48.604607      48.642671      50.299486    
     24400   306.30094      0.0244         0.74143604     0.060912305    0.1852478      1352.5981      589.56382     -7414.3604      48.510482      48.706767      50.304397    
     24500   302.25251      0.0245         0.69842251     0.10027115     0.22826133     959.4831       1315.6018     -6984.2251      48.660093      48.532664      50.309307    
     24600   299.4416       0.0246         0.78985461     0.0098469838   0.13682923    -199.48731      737.44706     -7898.5461      48.744037      48.467137      50.314218    
     24700   301.2239       0.0247         0.85365164    -0.055686334    0.073032201   -120.58348     -407.62851     -8536.5164      48.572822      48.659094      50.319128    
     24800   300.79808      0.0248         0.85106006    -0.048810938    0.075623788   -81.697187     -603.1417      -8510.6006      48.494575      48.737172      50.324039    
     24900   300.85219      0.0249         0.88615156    -0.073477351    0.040532288   -358.7545      -355.67908     -8861.5156      48.619152      48.601461      50.32895     
     25000   295.07252      0.025          0.86524844    -0.041547244    0.061435405   -419.29056      24.126565     -8652.4844      48.708698      48.501374      50.33386     
     25100   298.69484      0.0251         0.87920146    -0.049218317    0.047482381   -70.594988      24.998929     -8792.0146      48.644789      48.57068       50.338771    
     25200   299.47013      0.0252         0.83575056    -0.00996336     0.090933289    466.31923     -25.240143     -8357.5056      48.525018      48.665417      50.343682    
     25300   300.14737      0.0253         0.85299783    -0.027620359    0.073686014    155.78421      125.05213     -8529.9783      48.561688      48.630801      50.348592    
     25400   299.70571      0.0254         0.9212339     -0.077876645    0.0054499418  -684.33277     -290.07767     -9212.339       48.664224      48.541604      50.353503    
     25500   298.11684      0.0255         0.9379726     -0.070660336    0             -840.24231     -477.09702     -9379.726       48.649552      48.554917      50.358413    
     25600   302.18917      0.0256         0.90882778    -0.029618197    0.029144822   -23.030703     -446.97665     -9088.2778      48.519291      48.67145       50.363324    
     25700   295.24952      0.0257         0.80168398     0.072328838    0.13628862     1457.6978      427.19602     -8016.8398      48.474343      48.672356      50.368235    
     25800   301.22505      0.0258         0.76779907     0.097887647    0.17017353     998.42053      1617.0798     -7677.9907      48.667657      48.467984      50.373145    
     25900   301.62298      0.0259         0.85404334     0.0084325551   0.083929261    44.134045      704.68142     -8540.4334      48.71071       48.456647      50.378056    
     26000   300.84425      0.026          1.0238782     -0.14553934     0             -1338.4517     -1465.8588     -10238.782      48.579537      48.627458      50.382967    
     26100   295.03693      0.0261         1.0240859     -0.13125862     0             -1165.2981     -1616.758      -10240.859      48.500393      48.692065      50.387877    
     26200   298.32965      0.0262         0.94059586    -0.037284006    0.083490086   -342.47919     -284.67158     -9405.9586      48.566524      48.602823      50.392788    
     26300   301.87738      0.0263         0.82301277     0.077300575    0.20107317     767.13875      1393.0534     -8230.1277      48.647319      48.476406      50.397698    
     26400   299.82718      0.0264         0.83681935     0.055052539    0.18726659     1037.3889      1027.3117     -8368.1935      48.565763      48.548898      50.402609    
     26500   301.38719      0.0265         0.93756891    -0.045737383    0.08651704    -22.812314     -680.05502     -9375.6891      48.499959      48.663331      50.40752     
     26600   300.90145      0.0266         1.0055162     -0.10401588     0.018569696   -862.17156     -1107.9812     -10055.162      48.561408      48.610068      50.41243     
     26700   295.08832      0.0267         0.94545044    -0.029573425    0.078635505   -441.02361     -46.986044     -9454.5044      48.649888      48.494081      50.417341    
     26800   302.15024      0.0268         0.95639938    -0.021662329    0.06768657    -70.060786     -18.064339     -9563.9938      48.6322        48.509122      50.422251    
     26900   301.1214       0.0269         0.98360745    -0.035913993    0.040478495   -518.32257     -798.91846     -9836.0745      48.519504      48.631504      50.427162    
     27000   299.61808      0.027          0.90314443     0.032475644    0.12094151     629.67446      47.629055     -9031.4443      48.477008      48.636785      50.432073    
     27100   297.17266      0.0271         0.80523149     0.10850314     0.21885445     1160.9424      1719.4679     -8052.3149      48.638055      48.436637      50.436983    
     27200   303.8874       0.0272         0.90605278     0.0042275443   0.11803316     20.673466      516.06867     -9060.5278      48.68154       48.420085      50.441894    
     27300   301.77227      0.0273         0.98145275    -0.05532843     0.042633192   -445.55918     -740.58838     -9814.5275      48.524532      48.602567      50.446805    
     27400   296.49246      0.0274         0.96734613    -0.028169127    0.056739817   -61.883122     -561.05938     -9673.4613      48.458752      48.650831      50.451715    
     27500   300.54549      0.0275         0.97422161    -0.03137934     0.049864334   -96.621656      56.622908     -9742.2161      48.588592      48.515388      50.456626    
     27600   301.12504      0.0276         0.98733204    -0.046308186    0.03675391    -634.31807      244.26141     -9873.3204      48.68347       48.427954      50.461536    
     27700   299.70232      0.0277         1.0019573     -0.055282801    0.022128605   -277.32821     -422.10915     -10019.573      48.531302      48.573663      50.466447    
     27800   295.52695      0.0278         0.93031627     0.013749956    0.093769671    460.69906     -11.680223     -9303.1627      48.417579      48.664578      50.471358    
     27900   301.66299      0.0279         0.94184432    -0.0019544035   0.082241625    305.53656      108.15697     -9418.4432      48.50469       48.580429      50.476268    
     28000   294.80359      0.028          0.98637372    -0.038160872    0.037712227   -514.92609      148.06084     -9863.7372      48.638882      48.451179      50.481179    
     28100   296.61428      0.0281         1.0177437     -0.048279622    0.0063422586  -449.31151     -536.23746     -10177.437      48.578026      48.50718       50.48609     
     28200   302.67237      0.0282         0.9911391     -0.013166402    0.032946846   -34.814965     -376.30798     -9911.391       48.470994      48.610002      50.491       
     28300   298.98181      0.0283         0.98330325    -0.0051454991   0.0407827      38.76343      -219.3228      -9833.0325      48.490355      48.584661      50.495911    
     28400   299.71879      0.0284         1.0416955     -0.056102859    0             -1040.4118     -273.6362      -10416.955      48.657048      48.421487      50.500821    
     28500   295.65807      0.0285         0.95522477     0.028468238    0.086470782    240.36115      768.16337     -9552.2477      48.610914      48.430845      50.505732    
     28600   294.60214      0.0286         0.84994974     0.12000504     0.19174581     1478.0997      825.15397     -8499.4974      48.409316      48.61803       50.510643    
     28700   302.07395      0.0287         1.0709924     -0.094134104    0             -262.18472     -603.08447     -10709.924      48.464969      48.604013      50.515553    
     28800   301.11297      0.0288         1.1176022     -0.12201533     0             -1722.8773     -957.69743     -11176.022      48.63808       48.44416       50.520464    
     28900   303.42385      0.0289         0.97983424     0.019551619    0.13776796     134.42279      203.43025     -9798.3424      48.564315      48.475664      50.525375    
     29000   298.13535      0.029          0.9343914      0.059796228    0.1832108      855.88802      645.10537     -9343.914       48.462239      48.558787      50.530285    
     29100   300.53517      0.0291         1.0311778     -0.035646742    0.086424419    78.402508     -86.686272     -10311.778      48.475449      48.552654      50.535196    
     29200   302.46954      0.0292         1.0077584     -0.010565424    0.10984381    -13.720132      415.29764     -10077.584      48.56104       48.464426      50.540106    
     29300   305.5925       0.0293         0.97791243     0.018741456    0.13968977     270.08914      488.62269     -9779.1243      48.560646      48.458588      50.545017    
     29400   299.41774      0.0294         1.0303857     -0.034862799    0.087216499    204.58205      125.75833     -10303.857      48.50742       48.512351      50.549928    
     29500   301.19004      0.0295         1.0445419     -0.040087302    0.07306028     55.906603     -298.42395     -10445.419      48.471502      48.5485        50.554838    
     29600   300.76474      0.0296         1.0629612     -0.037205394    0.054641046   -284.18166     -251.08982     -10629.612      48.517795      48.501088      50.559749    
     29700   300.48111      0.0297         1.0926137     -0.064695823    0.024988483   -720.56175     -401.34046     -10926.137      48.569333      48.460677      50.564659    
     29800   301.03055      0.0298         1.1148658     -0.087221511    0.0027364393  -828.38475     -873.99907     -11148.658      48.510348      48.522044      50.56957     
     29900   297.39517      0.0299         1.0299093      0.0027424375   0.08769288     320.44041     -159.91958     -10299.093      48.422428      48.571137      50.574481    
     30000   299.64354      0.03           0.98172291     0.055662       0.13587929     870.6682       960.90924     -9817.2291      48.490593      48.481564      50.579391    
     30100   299.01452      0.0301         0.98230222     0.050195134    0.13529998     637.02876      1159.2082     -9823.0222      48.584313      48.392975      50.584302    
     30200   305.0719       0.0302         1.0978499     -0.056343399    0.019752297   -438.2537      -360.71126     -10978.499      48.512808      48.486251      50.589213    
     30300   296.21675      0.0303         1.1718253     -0.11092754     0             -767.97662     -1319.64       -11718.253      48.402573      48.612226      50.594123    
     30400   302.22604      0.0304         1.129027      -0.05826511     0.042798298   -485.39511     -679.72127     -11290.27       48.479832      48.519009      50.599034    
     30500   297.3889       0.0305         1.0660813      0.0068345401   0.10574401    -167.94408      144.5844      -10660.813      48.600098      48.36736       50.603944    
     30600   301.55035      0.0306         1.0244634      0.044602664    0.1473619      215.7523       702.08983     -10244.634      48.590063      48.368685      50.608855    
     30700   301.26134      0.0307         1.0052577      0.055072812    0.16656765     952.36216      829.51641     -10052.577      48.456129      48.487145      50.613766    
     30800   298.66475      0.0308         1.0566205     -0.0021145109   0.11520486     609.6739       181.34206     -10566.205      48.435521      48.515804      50.618676    
     30900   306.05701      0.0309         1.1455753     -0.079502744    0.026250029   -708.66275     -482.71844     -11455.753      48.566937      48.411967      50.623587    
     31000   301.32204      0.031          1.1556256     -0.072162767    0.016199737   -1204.4442     -744.30926     -11556.256      48.5907        48.387737      50.628498    
     31100   300.12148      0.0311         1.1133632     -0.016794249    0.05846216    -244.8481      -424.98108     -11133.632      48.467169      48.490123      50.633408    
     31200   298.95174      0.0312         1.0066948      0.080758649    0.16513057     1088.9366      713.97861     -10066.948      48.389023      48.519218      50.638319    
     31300   303.71433      0.0313         0.96180074     0.10465022     0.2100246      1705.9745      1739.2486     -9618.0074      48.474918      48.417132      50.643229    
     31400   304.73227      0.0314         1.0148552      0.040178611    0.15697018     438.13481      1088.2725     -10148.552      48.581958      48.330536      50.64814     
     31500   300.30556      0.0315         1.1967338     -0.12863478     0             -1100.6755     -994.63576     -11967.338      48.513082      48.442122      50.653051    
     31600   297.34451      0.0316         1.1832192     -0.099244648    0.013514552   -483.01833     -836.86269     -11832.192      48.408297      48.537796      50.657961    
     31700   298.37612      0.0317         1.0779221      0.013318936    0.11881169     363.36129      173.66491     -10779.221      48.43416       48.490346      50.662872    
     31800   301.65671      0.0318         1.1518188     -0.051057893    0.044915037   -366.75389     -312.6729      -11518.188      48.542301      48.385609      50.667783    
     31900   299.50595      0.0319         1.1662625     -0.063432942    0.030471266   -734.34639     -92.249381     -11662.625      48.598311      48.318437      50.672693    
     32000   298.79758      0.032          0.99437899     0.092325938    0.20235481     1530.2626      1422.7848     -9943.7899      48.423025      48.445562      50.677604    
     32100   299.63522      0.0321         1.0535738      0.027152212    0.14316002     1394.332       728.75603     -10535.738      48.311831      48.570054      50.682514    
     32200   301.47219      0.0322         1.2272905     -0.12450492     0             -837.52666     -1221.9264     -12272.905      48.437687      48.502494      50.687425    
     32300   299.1935       0.0323         1.2317146     -0.10193765     0             -1177.702      -700.59206     -12317.146      48.562224      48.360564      50.692336    
     32400   299.92013      0.0324         1.1562009     -0.012289428    0.075513639   -80.475541      471.78905     -11562.009      48.525178      48.366991      50.697246    
     32500   306.15568      0.0325         1.1302586      0.00700542     0.10145601     309.5478       239.84544     -11302.586      48.414864      48.474204      50.702157    
     32600   301.77985      0.0326         1.1298307      0.0020944768   0.10188392     462.26164      104.50564     -11298.307      48.377541      48.502953      50.707067    
     32700   300.84684      0.0327         1.1350016      0.0026314645   0.096712958    311.00402      259.0631      -11350.016      48.461395      48.411225      50.711978    
     32800   305.66061      0.0328         1.1576571     -0.01944021     0.074057446    0.054005259    339.52035     -11576.571      48.535061      48.337372      50.716889    
     32900   302.27388      0.0329         1.1564406     -0.019205853    0.075273996    28.838782      148.82277     -11564.406      48.483684      48.399457      50.721799    
     33000   300.66181      0.033          1.2289627     -0.068269573    0.0027519068  -302.01223     -623.20994     -12289.627      48.382661      48.507071      50.72671     
     33100   298.41935      0.0331         1.1888531     -0.01463205     0.042861498   -90.20855      -328.69417     -11888.531      48.405701      48.46534       50.731621    
     33200   296.27507      0.0332         1.1812159     -0.011602311    0.050498696   -239.22468      352.02097     -11812.159      48.568081      48.28964       50.736531    
     33300   301.54083      0.0333         1.1528321      0.0088932231   0.078882478    73.848842      590.80425     -11528.321      48.560748      48.2904        50.741442    
     33400   298.846        0.0334         1.1785671     -0.014605141    0.0531475      684.59626      58.596748     -11785.671      48.391082      48.457242      50.746352    
     33500   299.59677      0.0335         1.1935308     -0.02324165     0.038183767    276.86757     -357.96215     -11935.308      48.344881      48.49772       50.751263    
     33600   304.28874      0.0336         1.2659094     -0.082012352    0             -890.8439      -581.40314     -12659.094      48.499798      48.369815      50.756174    
     33700   303.90542      0.0337         1.2081642     -0.016950908    0.057745186   -112.23636      266.33172     -12081.642      48.548399      48.290012      50.761084    
     33800   299.74553      0.0338         1.1196726      0.067742249    0.1462368      1002.1096      1269.6869     -11196.726      48.4441        48.358556      50.765995    
     33900   300.68357      0.0339         1.1633567      0.024749755    0.10255269     833.96694      608.99008     -11633.567      48.337568      48.47772       50.770906    
     34000   300.14887      0.034          1.2281643     -0.040137667    0.03774511    -124.30999     -389.29091     -12281.643      48.359425      48.469812      50.775816    
     34100   294.99422      0.0341         1.2715235     -0.075229874    0             -672.57123     -274.61909     -12715.235      48.483545      48.355266      50.780727    
     34200   304.00006      0.0342         1.2185339     -0.018508445    0.052989627   -17.533454      154.98092     -12185.339      48.493392      48.326985      50.785637    
     34300   301.18679      0.0343         1.1965577      0.0078403385   0.074965853    412.07547      510.62521     -11965.577      48.423932      48.375257      50.790548    
     34400   292.62478      0.0344         1.1684134      0.034969295    0.10311018     674.41536      365.59419     -11684.134      48.36365       48.425825      50.795459    
     34500   301.40002      0.0345         1.2744172     -0.062945915    0             -267.13734     -93.818568     -12744.172      48.415562      48.396096      50.800369    
     34600   304.58252      0.0346         1.2978588     -0.08319253     0             -500.49824     -548.62588     -12978.588      48.448834      48.370498      50.80528     
     34700   303.50352      0.0347         1.2246427     -0.0083285917   0.073216093    279.94007      316.32857     -12246.427      48.43521       48.356277      50.810191    
     34800   301.88817      0.0348         1.185249       0.037622673    0.11260971     779.71908      575.81011     -11852.49       48.378764      48.394373      50.815101    
     34900   299.73125      0.0349         1.1949938      0.031041583    0.10286491     706.59421      480.54731     -11949.938      48.371829      48.398878      50.820012    
     35000   295.60702      0.035          1.2819985     -0.05057961     0.015860299   -129.88769      54.616265     -12819.985      48.430329      48.357111      50.824922    
     35100   301.94376      0.0351         1.3694049     -0.1281979      0             -1306.3885     -1178.7315     -13694.049      48.462238      48.356992      50.829833    
     35200   306.73866      0.0352         1.3196837     -0.068361775    0.049721138   -784.39418     -793.72985     -13196.837      48.416293      48.388776      50.834744    
     35300   301.07534      0.0353         1.2056699      0.046563316    0.16373501     760.69186      576.08981     -12056.699      48.345736      48.407251      50.839654    
     35400   300.41775      0.0354         1.1819438      0.071642422    0.18746107     1348.6663      919.92719     -11819.438      48.376297      48.359938      50.844565    
     35500   303.35717      0.0355         1.2426292      0.0077782424   0.1267757      200.07404      393.01594     -12426.292      48.483957      48.282905      50.849475    
     35600   303.34331      0.0356         1.3071829     -0.055843048    0.062221993   -585.78523     -611.61169     -13071.829      48.482231      48.295418      50.854386    
     35700   298.80631      0.0357         1.3292831     -0.067479228    0.040121768   -432.63836     -400.2177      -13292.831      48.437784      48.328418      50.859297    
     35800   299.82133      0.0358         1.2782807     -0.0071736221   0.091124212    359.19738      66.538509     -12782.807      48.400306      48.352777      50.864207    
     35900   301.87632      0.0359         1.2578386      0.019552916    0.11156627     202.47833      401.95571     -12578.386      48.426574      48.316212      50.869118    
     36000   301.71258      0.036          1.2924718     -0.014032959    0.076933064    168.20947      155.98836     -12924.718      48.400697      48.334777      50.874029    
     36100   300.28566      0.0361         1.312362      -0.039627475    0.057042831    210.20788     -136.24652     -13123.62       48.353606      48.384503      50.878939    
     36200   304.9194       0.0362         1.3242391     -0.051049018    0.04516575    -317.33919     -209.88176     -13242.391      48.388831      48.359056      50.88385     
     36300   297.25146      0.0363         1.3329699     -0.047049752    0.036435016   -185.93954      72.731455     -13329.699      48.414466      48.322288      50.88876     
     36400   294.65181      0.0364         1.2810068      0.01481958     0.088398045    34.99246       295.2649      -12810.068      48.386559      48.33113       50.893671    
     36500   302.20379      0.0365         1.3523375     -0.045540218    0.017067419   -138.46461     -347.33391     -13523.375      48.325439      48.407203      50.898582    
     36600   301.02875      0.0366         1.3657302     -0.053078264    0.0036746381  -341.2046      -586.69783     -13657.302      48.316472      48.413155      50.903492    
     36700   302.53602      0.0367         1.2964905      0.012882242    0.072914408    291.64786      257.40249     -12964.905      48.383448      48.319266      50.908403    
     36800   295.81972      0.0368         1.2101192      0.092437373    0.15928569     980.90945      1247.9299     -12101.192      48.416311      48.257351      50.913314    
     36900   300.37282      0.0369         1.2797175      0.025026915    0.089687334    496.46085      820.83262     -12797.175      48.399551      48.293825      50.918224    
     37000   302.7724       0.037          1.4172145     -0.099995802    0             -754.65125     -1019.7345     -14172.145      48.341904      48.38478       50.923135    
     37100   298.37595      0.0371         1.3826074     -0.058364131    0.034607136   -521.8904      -747.72826     -13826.074      48.322988      48.395039      50.928045    
     37200   296.87909      0.0372         1.3327764     -0.0076794142   0.084438125    162.1509       284.0568      -13327.764      48.357141      48.330225      50.932956    
     37300   303.1519       0.0373         1.3293915     -0.0046523144   0.087823064    173.12428      279.0575      -13293.915      48.371136      48.306614      50.937867    
     37400   305.66764      0.0374         1.2905875      0.035109682    0.12662699     505.11055      514.87166     -12905.875      48.349709      48.323713      50.942777    
     37500   299.18763      0.0375         1.2865854      0.032536643    0.13062916     808.59705      708.52585     -12865.854      48.298815      48.363802      50.947688    
     37600   304.56343      0.0376         1.3701702     -0.050604218    0.047044299    15.792008     -255.70373     -13701.702      48.281088      48.396021      50.952599    
     37700   297.37507      0.0377         1.3961743     -0.066639936    0.021040194   -463.67132     -381.70407     -13961.743      48.346558      48.332492      50.957509    
     37800   298.41895      0.0378         1.3632998     -0.018447354    0.053914713   -169.273       -27.223379     -13632.998      48.403547      48.269855      50.96242     
     37900   299.07271      0.0379         1.3545078     -0.0021763529   0.062706683    184.81896      292.78531     -13545.078      48.400297      48.260063      50.96733     
     38000   300.68824      0.038          1.3742073     -0.026176564    0.043007191   -183.61339      13.162236     -13742.073      48.362993      48.303381      50.972241    
     38100   302.71734      0.0381         1.4291105     -0.076429419    0             -283.01436     -515.60781     -14291.105      48.30668       48.360595      50.977152    
     38200   301.94301      0.0382         1.3734862     -0.016734179    0.055624255    171.24708      215.16193     -13734.862      48.314968      48.328979      50.982062    
     38300   304.6712       0.0383         1.3011367      0.052789919    0.12797383     663.12926      930.96181     -13011.367      48.331443      48.301632      50.986973    
     38400   303.41029      0.0384         1.3750473     -0.012674718    0.054063222    237.80253      202.88673     -13750.473      48.297995      48.340642      50.991883    
     38500   299.94291      0.0385         1.4011954     -0.02736181     0.02791513     72.450909      0.74710102    -14011.954      48.275921      48.365645      50.996794    
     38600   293.5364       0.0386         1.4293428     -0.049591965    0             -367.15605     -499.29723     -14293.428      48.294064      48.348955      51.001705    
     38700   299.49556      0.0387         1.5016725     -0.11137189     0             -1157.3935     -953.04918     -15016.725      48.341912      48.319944      51.006615    
     38800   300.48544      0.0388         1.4116518     -0.016515924    0.090020772    173.95023      92.473154     -14116.518      48.302487      48.323508      51.011526    
     38900   298.16073      0.0389         1.3128859      0.078087709    0.1887866      1268.6641      1395.206      -13128.859      48.278782      48.313596      51.016437    
     39000   301.28063      0.039          1.402628      -0.0088122606   0.099044564    474.25631      248.52008     -14026.28       48.279977      48.325055      51.021347    
     39100   303.77323      0.0391         1.4830966     -0.083882257    0.018575961   -444.25922     -587.92215     -14830.966      48.306387      48.32808       51.026258    
     39200   295.1686       0.0392         1.4662264     -0.057738106    0.035446094   -235.63261     -229.46346     -14662.264      48.325187      48.300778      51.031168    
     39300   298.16995      0.0393         1.4751363     -0.049248047    0.026536185   -578.09148     -314.27931     -14751.363      48.356277      48.265713      51.036079    
     39400   297.08794      0.0394         1.4761108     -0.040116138    0.025561743   -624.42784     -301.15202     -14761.108      48.347028      48.271896      51.04099     
     39500   304.66398      0.0395         1.4450842     -0.0047006299   0.056588373   -131.3616      -70.258792     -14450.842      48.277607      48.33264       51.0459      
     39600   300.95549      0.0396         1.4010474      0.036506567    0.10062511     761.43874      418.18872     -14010.474      48.212229      48.367232      51.050811    
[...]
     87200   296.74299      0.0872         3.2065447     -0.13484369     0.088169005   -172.44506      71.616024     -32065.447      45.94896       48.800256      53.388266    
     87300   298.6276       0.0873         3.3111104     -0.21168619     0             -793.42213     -967.79451     -33111.104      45.888201      48.886857      53.393177    
     87400   298.44084      0.0874         3.198278      -0.083063766    0.11283237     59.578493     -261.25001     -31982.78       45.860511      48.892302      53.398088    
     87500   300.5849       0.0875         3.1751255     -0.040405036    0.13598481     568.17505      727.71494     -31751.255      45.89201       48.841793      53.402998    
     87600   299.25742      0.0876         3.2684963     -0.098265713    0.042614038   -410.42252     -594.81234     -32684.963      45.858614      48.892874      53.407909    
     87700   299.34668      0.0877         3.3222275     -0.11578194     0             -1013.7993     -1116.3586     -33222.275      45.811353      48.943433      53.412819    
     87800   298.23108      0.0878         3.1897037      0.029523369    0.13252384     388.56574      466.60038     -31897.037      45.789584      48.930628      53.41773     
     87900   299.6577       0.0879         3.1717403      0.050162601    0.15048727     284.90212      682.21682     -31717.403      45.72657       48.990129      53.422641    
     88000   305.68264      0.088          3.1826279      0.039313562    0.13959961    -244.05171     -414.02251     -31826.279      45.478238      49.274039      53.427551    
     88100   299.8267       0.0881         3.081924       0.12885385     0.24030356     294.04068      127.40774     -30819.24       45.21988       49.527153      53.432462    
     88200   302.0437       0.0882         3.0824407      0.11592674     0.23978684     93.112864      201.18755     -30824.407      45.092503      49.652851      53.437372    
     88300   301.59927      0.0883         3.088017       0.088041059    0.2342105     -32.312247      114.65607     -30880.17       44.982908      49.767085      53.442283    
     88400   302.08894      0.0884         2.9796521      0.17454339     0.34257541     533.21333      107.12738     -29796.521      44.842318      49.91748       53.447194    
     88500   296.92974      0.0885         3.0095777      0.12806301     0.31264981     62.97617      -112.7182      -30095.777      44.797444      49.973463      53.452104    
     88600   295.23501      0.0886         3.1109032      0.010978216    0.21132433    -391.13795     -810.46634     -31109.032      44.849266      49.920681      53.457015    
     88700   296.44804      0.0887         3.1444347     -0.040332589    0.17779281    -346.78661     -460.77039     -31444.347      45.015667      49.744453      53.461926    
     88800   302.73254      0.0888         3.173583      -0.0710929      0.14864457    -229.10567     -251.30874     -31735.83       45.195515      49.543542      53.466836    
     88900   301.03127      0.0889         3.18789       -0.08378495     0.13433755     427.76239      158.61196     -31878.9        45.380078      49.321479      53.471747    
     89000   295.30518      0.089          3.2446622     -0.13435374     0.077565335    605.90096      682.7371      -32446.622      45.576902      49.096237      53.476657    
     89100   300.34908      0.0891         3.2644253     -0.13586668     0.057802263    163.87355      225.09418     -32644.253      45.681975      48.99809       53.481568    
     89200   300.73456      0.0892         3.2926015     -0.1430268      0.029626062    256.4932      -57.246168     -32926.015      45.716105      48.971109      53.486479    
     89300   304.56831      0.0893         3.3052132     -0.13391891     0.017014338    463.33338      76.362182     -33052.132      45.795161      48.878875      53.491389    
     89400   299.6922       0.0894         3.3650963     -0.15525761     0             -540.47718     -417.90416     -33650.963      45.988398      48.686653      53.4963      
     89500   301.8946       0.0895         3.4377208     -0.1850678      0             -655.69016     -837.96035     -34377.208      46.150876      48.526593      53.501211    
     89600   299.71294      0.0896         3.3114697     -0.038760004    0.12625115     811.56362      562.94        -33114.697      46.272006      48.360577      53.506121    
     89700   297.02162      0.0897         3.326017      -0.035149089    0.11170384     878.55456      944.49903     -33260.17       46.402175      48.21427       53.511032    
     89800   292.97562      0.0898         3.4287838     -0.11239578     0.0089370669  -537.48919     -348.98787     -34287.838      46.501961      48.135526      53.515942    
     89900   296.96706      0.0899         3.4652235     -0.12110218     0             -1232.4395     -894.14698     -34652.235      46.535563      48.123064      53.520853    
     90000   301.46337      0.09           3.4271483     -0.06477841     0.038075153   -580.79375     -374.50542     -34271.483      46.455333      48.188282      53.525764    
     90100   293.50091      0.0901         3.3496446      0.021247293    0.11557893     679.53141      440.99184     -33496.446      46.341758      48.265017      53.530674    
     90200   298.22484      0.0902         3.3731696      0.0057790434   0.092053861    303.85875      487.40607     -33731.696      46.300101      48.302825      53.535585    
     90300   298.36248      0.0903         3.4474908     -0.054314331    0.017732731   -521.52312     -113.90815     -34474.908      46.175813      48.459199      53.540496    
     90400   299.50716      0.0904         3.4073258     -0.0099264146   0.057897699   -510.89349     -557.40191     -34073.258      45.898313      48.750448      53.545406    
     90500   295.13212      0.0905         3.3741916      0.016854861    0.091031897   -206.9999      -170.9326      -33741.916      45.658073      48.989202      53.550317    
     90600   303.96132      0.0906         3.3716687      0.025397622    0.09355475    -867.36185     -251.76127     -33716.687      45.488296      49.170169      53.555227    
     90700   294.96958      0.0907         3.2815628      0.11105819     0.18366074     206.83941      129.14226     -32815.628      45.260616      49.385683      53.560138    
     90800   297.35482      0.0908         3.221975       0.14996504     0.24324847     614.84603      556.70444     -32219.75       45.113323      49.519296      53.565049    
     90900   298.6177       0.0909         3.202547       0.14312545     0.26267652     117.7899       208.24467     -32025.47       45.051422      49.60682       53.569959    
     91000   298.35783      0.091          3.2072493      0.11643321     0.25797419    -521.00996     -266.19678     -32072.493      44.959612      49.718053      53.57487     
     91100   299.78814      0.0911         3.1731515      0.13288176     0.29207205    -127.87056     -357.12363     -31731.515      44.80527       49.865271      53.57978     
     91200   299.38069      0.0912         3.1328321      0.14916737     0.33239142     393.15567     -121.20252     -31328.321      44.720783      49.940131      53.584691    
     91300   302.73209      0.0913         3.1159531      0.13289259     0.3492704      406.10093      355.89547     -31159.531      44.753021      49.895934      53.589602    
     91400   298.24586      0.0914         3.0963495      0.12139856     0.368874       425.94512      736.8542      -30963.495      44.796629      49.84084       53.594512    
     91500   301.76335      0.0915         3.2163992     -0.014430416    0.24882426    -325.95859     -385.77935     -32163.992      44.806622      49.865802      53.599423    
     91600   301.33623      0.0916         3.340572      -0.14171282     0.12465154    -2095.4697     -2033.9841     -33405.72       44.877653      49.815753      53.604334    
     91700   303.55063      0.0917         3.2781653     -0.079645874    0.18705823    -582.96309     -267.98534     -32781.653      44.937614      49.70434       53.609244    
     91800   298.00899      0.0918         3.0128322      0.16477289     0.45239127     2559.7607      3041.2865     -30128.322      44.880257      49.672597      53.614155    
     91900   304.3688       0.0919         3.0794366      0.085857478    0.3857869      1516.5029      1657.1686     -30794.366      44.840236      49.748357      53.619065    
     92000   298.88002      0.092          3.291895      -0.11813637     0.17332849    -1151.007      -768.86823     -32918.95       44.84101       49.813038      53.623976    
     92100   296.90579      0.0921         3.2697625     -0.08634273     0.19546102    -1213.4573     -874.70402     -32697.625      44.719784      49.948372      53.628887    
     92200   294.01741      0.0922         3.1001445      0.080006526    0.36507904    -608.40309     -332.89702     -31001.445      44.522468      50.144544      53.633797    
     92300   297.68083      0.0923         3.0792019      0.097273925    0.38602156    -922.70477     -1063.4554     -30792.019      44.339306      50.355559      53.638708    
     92400   303.24699      0.0924         3.0080591      0.15958772     0.45716439    -657.26353     -701.61523     -30080.591      44.19649       50.477124      53.643619    
     92500   298.75013      0.0925         2.8023718      0.32387226     0.66285167     975.05881      1399.2958     -28023.718      44.046093      50.578654      53.648529    
     92600   299.00403      0.0926         2.6776715      0.38228255     0.78755201     1005.2839      1273.9886     -26776.715      43.87762       50.757211      53.65344     
     92700   299.0381       0.0927         2.7288027      0.27621507     0.73642079    -356.86062     -515.08569     -27288.027      43.744338      50.940887      53.65835     
     92800   304.38943      0.0928         2.6527795      0.31623299     0.81244398    -607.51754     -806.44089     -26527.795      43.637941      51.065692      53.663261    
     92900   296.01329      0.0929         2.5767228      0.34201836     0.88850073    -199.03132     -266.23788     -25767.228      43.550097      51.146973      53.668172    
     93000   293.97391      0.093          2.572497       0.27430433     0.89272649    -799.56916     -993.11177     -25724.97       43.476303      51.239105      53.673082    
     93100   301.24423      0.0931         2.5065753      0.26390735     0.95864824    -491.9412      -588.22988     -25065.753      43.402406      51.297936      53.677993    
     93200   302.87834      0.0932         2.3322891      0.36140795     1.1329344      1238.8681      1252.3808     -23322.891      43.32868       51.324718      53.682904    
     93300   301.65119      0.0933         2.3058412      0.31051979     1.1593823      1538.136       1600.5657     -23058.412      43.285141      51.362929      53.687814    
     93400   299.87945      0.0934         2.4078468      0.14849297     1.0573767     -118.3469       160.8965      -24078.468      43.274265      51.405496      53.692725    
     93500   300.75033      0.0935         2.4780916      0.045820169    0.98713192    -1592.5301     -2021.8689     -24780.916      43.21774       51.529975      53.697635    
     93600   298.80021      0.0936         2.4371375      0.062720854    1.028086      -1195.3664     -1629.7435     -24371.375      43.193106      51.545409      53.702546    
     93700   299.62175      0.0937         2.3207587      0.13829523     1.1444648      459.24635      887.97895     -23207.587      43.217223      51.44989       53.707457    
     93800   299.28087      0.0938         2.2595635      0.16016881     1.20566        1316.4882      1662.1008     -22595.635      43.156308      51.479653      53.712367    
     93900   302.19702      0.0939         2.2774141      0.11238738     1.1878094      267.83259      297.56908     -22774.141      43.080301      51.587038      53.717278    
     94000   304.03057      0.094          2.2325975      0.12321405     1.232626       83.156344      376.99069     -22325.975      43.055317      51.617491      53.722188    
     94100   300.6269       0.0941         2.1427173      0.17670839     1.3225062      416.55624      775.56873     -21427.173      42.990732      51.67684       53.727099    
     94200   298.38952      0.0942         2.1676064      0.13535106     1.2976171     -726.87213     -943.98365     -21676.064      42.848946      51.859964      53.73201     
     94300   296.9553       0.0943         2.020897       0.25356602     1.4443265     -503.69085     -930.09257     -20208.97       42.73904       51.979593      53.73692     
     94400   300.78515      0.0944         1.9766695      0.25467578     1.488554      -80.511373      118.39554     -19766.695      42.714783      51.984736      53.741831    
     94500   295.81966      0.0945         1.9300399      0.24650023     1.5351836      246.48439      83.469819     -19300.399      42.627151      52.066444      53.746742    
     94600   298.03045      0.0946         1.9293594      0.19640296     1.5358641      145.06985     -517.99243     -19293.594      42.584026      52.11903       53.751652    
     94700   300.39383      0.0947         1.9269022      0.15947453     1.5383213      544.77278      557.79443     -19269.022      42.674444      52.002436      53.756563    
     94800   297.10742      0.0948         1.998548       0.061727122    1.4666755      675.04004      1021.202      -19985.48       42.779377      51.878974      53.761473    
     94900   294.62303      0.0949         2.1317686     -0.086057998    1.3334549     -525.34945     -235.59519     -21317.686      42.818111      51.853777      53.766384    
     95000   298.62715      0.095          2.1924676     -0.15076995     1.2727559     -1668.1388     -1696.8653     -21924.676      42.746453      51.972498      53.771295    
     95100   301.78222      0.0951         1.9813807      0.044183251    1.4838428     -92.150916     -405.7591      -19813.807      42.64332       52.041602      53.776205    
     95200   301.24082      0.0952         1.821191       0.16973139     1.6440325      1617.0848      1747.2625     -18211.91       42.607696      52.031003      53.781116    
     95300   299.39046      0.0953         1.8421602      0.13088855     1.6230633      353.29196      707.59824     -18421.602      42.555572      52.108016      53.786027    
     95400   301.58693      0.0954         1.8440376      0.11574791     1.6211859     -878.7006      -1007.7142     -18440.376      42.461486      52.247702      53.790937    
     95500   297.60134      0.0955         1.7841557      0.16104136     1.6810678     -599.56461     -638.64077     -17841.557      42.415306      52.285035      53.795848    
     95600   299.95393      0.0956         1.7090539      0.21411262     1.7561696      186.27848      497.40198     -17090.539      42.366023      52.306768      53.800758    
     95700   299.06358      0.0957         1.6022655      0.28843733     1.862958       1194.7446      903.16318     -16022.655      42.293259      52.371486      53.805669    
     95800   301.05368      0.0958         1.7086704      0.15304474     1.7565531     -4.9619641      49.578971     -17086.704      42.342352      52.338937      53.81058     
     95900   297.88007      0.0959         1.7797267      0.046784213    1.6854968     -1094.9808     -702.89701     -17797.267      42.350013      52.342216      53.81549     
     96000   302.74297      0.096          1.5908516      0.17549769     1.8743719     -347.84522     -409.80308     -15908.516      42.21853       52.476409      53.820401    
Fix halt condition for fix-id halt_peak_fix met on step 96100 with value 1
     96100   304.60731      0.0961         1.4127576      0.29672939     2.0524659      627.09533      693.61658     -14127.576      42.104624      52.576028      53.825312    
Loop time of 581.375 on 1 procs for 96100 steps with 6912 atoms

Performance: 28.563 ns/day, 0.840 hours/ns, 165.298 timesteps/s, 1.143 Matom-step/s
110.8% CPU use with 1 MPI tasks x 1 OpenMP threads

MPI task timing breakdown:
Section |  min time  |  avg time  |  max time  |%varavg| %total
---------------------------------------------------------------
Pair    | 544.29     | 544.29     | 544.29     |   0.0 | 93.62
Neigh   | 5.2957     | 5.2957     | 5.2957     |   0.0 |  0.91
Comm    | 2.0256     | 2.0256     | 2.0256     |   0.0 |  0.35
Output  | 10.38      | 10.38      | 10.38      |   0.0 |  1.79
Modify  | 18.2       | 18.2       | 18.2       |   0.0 |  3.13
Other   |            | 1.186      |            |       |  0.20

Nlocal:           6912 ave        6912 max        6912 min
Histogram: 1 0 0 0 0 0 0 0 0 0
Nghost:           8920 ave        8920 max        8920 min
Histogram: 1 0 0 0 0 0 0 0 0 0
Neighs:         363086 ave      363086 max      363086 min
Histogram: 1 0 0 0 0 0 0 0 0 0
FullNghs:       726243 ave      726243 max      726243 min
Histogram: 1 0 0 0 0 0 0 0 0 0

Total # of neighbors = 726243
Ave neighs/atom = 105.06988
Neighbor list builds = 430
Dangerous builds = 0
Total wall time: 0:09:49
        1.8440376      0.11574791     1.6211859     -878.7006      -1007.7142     -18440.376      42.461486      52.247702      53.790937    
     95500   297.60134      0.0955         1.7841557      0.16104136     1.6810678     -599.56461     -638.64077     -17841.557      42.415306      52.285035      53.795848    
     95600   299.95393      0.0956         1.7090539      0.21411262     1.7561696      186.27848      497.40198     -17090.539      42.366023      52.306768      53.800758    
     95700   299.06358      0.0957         1.6022655      0.28843733     1.862958       1194.7446      903.16318     -16022.655      42.293259      52.371486      53.805669    
     95800   301.05368      0.0958         1.7086704      0.15304474     1.7565531     -4.9619641      49.578971     -17086.704      42.342352      52.338937      53.81058     
     95900   297.88007      0.0959         1.7797267      0.046784213    1.6854968     -1094.9808     -702.89701     -17797.267      42.350013      52.342216      53.81549     
     96000   302.74297      0.096          1.5908516      0.17549769     1.8743719     -347.84522     -409.80308     -15908.516      42.21853       52.476409      53.820401    
Fix halt condition for fix-id halt_peak_fix met on step 96100 with value 1
     96100   304.60731      0.0961         1.4127576      0.29672939     2.0524659      627.09533      693.61658     -14127.576      42.104624      52.576028      53.825312    
Loop time of 581.375 on 1 procs for 96100 steps with 6912 atoms

Performance: 28.563 ns/day, 0.840 hours/ns, 165.298 timesteps/s, 1.143 Matom-step/s
110.8% CPU use with 1 MPI tasks x 1 OpenMP threads

MPI task timing breakdown:
Section |  min time  |  avg time  |  max time  |%varavg| %total
---------------------------------------------------------------
Pair    | 544.29     | 544.29     | 544.29     |   0.0 | 93.62
Neigh   | 5.2957     | 5.2957     | 5.2957     |   0.0 |  0.91
Comm    | 2.0256     | 2.0256     | 2.0256     |   0.0 |  0.35
Output  | 10.38      | 10.38      | 10.38      |   0.0 |  1.79
Modify  | 18.2       | 18.2       | 18.2       |   0.0 |  3.13
Other   |            | 1.186      |            |       |  0.20

Nlocal:           6912 ave        6912 max        6912 min
Histogram: 1 0 0 0 0 0 0 0 0 0
Nghost:           8920 ave        8920 max        8920 min
Histogram: 1 0 0 0 0 0 0 0 0 0
Neighs:         363086 ave      363086 max      363086 min
Histogram: 1 0 0 0 0 0 0 0 0 0
FullNghs:       726243 ave      726243 max      726243 min
Histogram: 1 0 0 0 0 0 0 0 0 0

Total # of neighbors = 726243
Ave neighs/atom = 105.06988
Neighbor list builds = 430
Dangerous builds = 0
Total wall time: 0:09:49
