(written by ASE)

7560 atoms
1 atom types

0.0       52.05720123095363  xlo xhi
0.0      50.092065239915996  ylo yhi
0.0      49.588614620696951  zlo zhi

Atoms # atomic

     1   1      2.8920667350529792 -3.7050484247639089e-17 -5.9451979752393964e-17
     2   1      1.4460333675264896      2.5046032619957996 -5.9451979752393964e-17
     3   1  7.9108757318134867e-17      5.0092065239915993 -1.1890395950478793e-16
     4   1                       0                       0                       0
     5   1  7.9108757318134867e-17      1.6697355079971996      2.3613626009855695
     6   1      4.3381001025794683      2.5046032619957996 -5.9451979752393964e-17
     7   1      1.4460333675264896      7.5138097859873989 -1.7835593925718189e-16
     8   1      4.3381001025794683      7.5138097859873989 -1.7835593925718189e-16
     9   1      2.8920667350529792      5.0092065239915993 -1.1890395950478793e-16
    10   1      1.4460333675264896      4.1743387699929997      2.3613626009855695
    11   1      4.3381001025794683      4.1743387699929997      2.3613626009855695
    12   1      2.8920667350529787      6.6789420319887993      2.3613626009855695
    13   1      2.8920667350529792      1.6697355079971996      2.3613626009855695
    14   1      1.4460333675264896     0.83486775399859992       4.722725201971139
    15   1      4.3381001025794683     0.83486775399859992       4.722725201971139
    16   1      2.8920667350529787      3.3394710159943997       4.722725201971139
    17   1      1.4460333675264894       9.183545293984599      2.3613626009855699
    18   1  1.5821751463626973e-16      6.6789420319887984      2.3613626009855695
    19   1      1.4460333675264894      5.8440742779901997       4.722725201971139
    20   1 -2.0676293789565801e-16      8.3486775399859994       4.722725201971139
    21   1  1.5821751463626973e-16      3.3394710159943992       4.722725201971139
    22   1      4.3381001025794692      9.1835452939845972      2.3613626009855699
    23   1      4.3381001025794692      5.8440742779901989       4.722725201971139
    24   1      2.8920667350529792      8.3486775399859994       4.722725201971139
    25   1      2.8920667350529787  2.9588727285950626e-16      7.0840878029567085
    26   1      1.4460333675264894      2.5046032619958001      7.0840878029567094
    27   1 -2.0676293789565801e-16      5.0092065239915993      7.0840878029567085
    28   1  1.5821751463626973e-16 -1.4820193699055636e-16      7.0840878029567085
    29   1 -2.0676293789565801e-16      1.6697355079971998       9.445450403942278
    30   1      4.3381001025794692      2.5046032619957992      7.0840878029567094
    31   1      1.4460333675264898      7.5138097859873989      7.0840878029567085
    32   1      4.3381001025794683      7.5138097859873989      7.0840878029567085
    33   1      2.8920667350529792      5.0092065239915993      7.0840878029567085
    34   1      1.4460333675264898      4.1743387699929988       9.445450403942278
    35   1      4.3381001025794683      4.1743387699929988       9.445450403942278
    36   1      2.8920667350529792      6.6789420319887984       9.445450403942278
    37   1      2.8920667350529792      1.6697355079971998       9.445450403942278
    38   1      1.4460333675264898      0.8348677539985998      11.806813004927848
    39   1      4.3381001025794683      0.8348677539985998      11.806813004927848
    40   1      2.8920667350529792      3.3394710159943992      11.806813004927848
    41   1      1.4460333675264894      9.1835452939845972      9.4454504039422797
    42   1  3.1643502927253947e-16      6.6789420319887984       9.445450403942278
    43   1      1.4460333675264894       5.844074277990198      11.806813004927848
    44   1 -4.8545423259388279e-17      8.3486775399859976      11.806813004927848
    45   1  3.1643502927253947e-16      3.3394710159943992      11.806813004927848
    46   1      4.3381001025794683       9.183545293984599       9.445450403942278
    47   1      4.3381001025794683      5.8440742779901989      11.806813004927847
    48   1      2.8920667350529787      8.3486775399859994      11.806813004927848
    49   1      2.8920667350529792 -2.9640387398111271e-16      14.168175605913417
    50   1      1.4460333675264894      2.5046032619957987      14.168175605913419
    51   1 -4.8545423259388279e-17      5.0092065239915984      14.168175605913419
    52   1  3.1643502927253947e-16 -2.9640387398111271e-16      14.168175605913417
    53   1 -4.8545423259388279e-17      1.6697355079971989      16.529538206898987
    54   1      4.3381001025794683      2.5046032619957996      14.168175605913417
    55   1      1.4460333675264891      7.5138097859873989      14.168175605913417
    56   1      4.3381001025794674      7.5138097859873989      14.168175605913417
    57   1      2.8920667350529787      5.0092065239916002      14.168175605913419
    58   1      1.4460333675264891      4.1743387699929997      16.529538206898987
    59   1      4.3381001025794674      4.1743387699929997      16.529538206898987
    60   1      2.8920667350529783      6.6789420319887993      16.529538206898987
    61   1      2.8920667350529787      1.6697355079972007      16.529538206898987
    62   1      1.4460333675264891     0.83486775399860058      18.890900807884556
    63   1      4.3381001025794674     0.83486775399860058      18.890900807884556
    64   1      2.8920667350529783      3.3394710159943997      18.890900807884556
    65   1      1.4460333675264887       9.183545293984599      16.529538206898987
    66   1 -4.1352587579131603e-16      6.6789420319887993      16.529538206898987
    67   1      1.4460333675264887      5.8440742779901989      18.890900807884556
    68   1 -7.7850632832324378e-16      8.3486775399859976      18.890900807884556
    69   1 -4.1352587579131603e-16      3.3394710159943997      18.890900807884556
    70   1      4.3381001025794692       9.183545293984599      16.529538206898987
    71   1      4.3381001025794692      5.8440742779901989      18.890900807884556
    72   1      2.8920667350529796      8.3486775399859976      18.890900807884556
    73   1      2.8920667350529783  4.4357260872845616e-16      21.252263408870125
    74   1      1.4460333675264887      2.5046032619957996      21.252263408870128
    75   1 -7.7850632832324378e-16      5.0092065239915993      21.252263408870128
    76   1 -4.1352587579131603e-16  4.4357260872845616e-16      21.252263408870125
    77   1 -7.7850632832324378e-16      1.6697355079971996      23.613626009855697
    78   1      4.3381001025794692      2.5046032619957996      21.252263408870125
    79   1        1.44603336752649       7.513809785987398      21.252263408870125
    80   1       4.338100102579471       7.513809785987398      21.252263408870128
    81   1      2.8920667350529796      5.0092065239915993      21.252263408870128
    82   1        1.44603336752649      4.1743387699929988      23.613626009855693
    83   1       4.338100102579471      4.1743387699929988      23.613626009855697
    84   1       2.892066735052981      6.6789420319888002      23.613626009855697
    85   1      2.8920667350529796      1.6697355079971996      23.613626009855697
    86   1        1.44603336752649     0.83486775399859947      25.974988610841262
    87   1       4.338100102579471     0.83486775399859947      25.974988610841265
    88   1       2.892066735052981      3.3394710159944005      25.974988610841265
    89   1      1.4460333675264916       9.183545293984599      23.613626009855697
    90   1  6.3287005854507894e-16      6.6789420319887984      23.613626009855697
    91   1      1.4460333675264916      5.8440742779901997      25.974988610841265
    92   1  7.8817247846638172e-16      8.3486775399859994      25.974988610841269
    93   1  6.3287005854507894e-16      3.3394710159943988      25.974988610841265
    94   1      4.3381001025794683      9.1835452939845972      23.613626009855697
    95   1      4.3381001025794683       5.844074277990198      25.974988610841265
    96   1      2.8920667350529787      8.3486775399859976      25.974988610841269
    97   1       2.892066735052981   1.183549091438025e-15      28.336351211826834
    98   1      1.4460333675264916      2.5046032619958005      28.336351211826834
    99   1  7.8817247846638172e-16      5.0092065239915993      28.336351211826837
   100   1  6.3287005854507894e-16 -5.9280774796222543e-16      28.336351211826834
   101   1  7.8817247846638172e-16      1.6697355079972003      30.697713812812406
   102   1      4.3381001025794683      2.5046032619957987      28.336351211826834
   103   1      1.4460333675264883      7.5138097859873989      28.336351211826837
   104   1      4.3381001025794683      7.5138097859873971      28.336351211826834
   105   1      2.8920667350529787      5.0092065239915975      28.336351211826837
   106   1      1.4460333675264883      4.1743387699929997      30.697713812812406
   107   1      4.3381001025794683      4.1743387699929979      30.697713812812403
   108   1      2.8920667350529774      6.6789420319887967      30.697713812812406
   109   1      2.8920667350529787      1.6697355079971985      30.697713812812406
   110   1      1.4460333675264883      0.8348677539985988      33.059076413797982
   111   1      4.3381001025794683     0.83486775399859703      33.059076413797975
   112   1      2.8920667350529774      3.3394710159943979      33.059076413797975
   113   1      1.4460333675264891       9.183545293984599      30.697713812812403
   114   1 -9.7090846518776557e-17      6.6789420319887967      30.697713812812406
   115   1      1.4460333675264891      5.8440742779901989      33.059076413797975
   116   1  7.9400266789631563e-16      8.3486775399859958      33.059076413797975
   117   1 -9.7090846518776557e-17      3.3394710159943979      33.059076413797975
   118   1      4.3381001025794665       9.183545293984599      30.697713812812406
   119   1      4.3381001025794665      5.8440742779901989      33.059076413797975
   120   1      2.8920667350529783      8.3486775399859994      33.059076413797975
   121   1      2.8920667350529774  -1.629188104652907e-15      35.420439014783547
   122   1      1.4460333675264891      2.5046032619957979      35.420439014783547
   123   1  7.9400266789631563e-16      5.0092065239915966      35.420439014783547
   124   1 -9.7090846518776557e-17  -1.629188104652907e-15      35.420439014783547
   125   1  7.9400266789631563e-16      1.6697355079971976      37.781801615769112
   126   1      4.3381001025794665      2.5046032619957979      35.420439014783547
   127   1        1.44603336752649       7.513809785987398       35.42043901478354
   128   1       4.338100102579471       7.513809785987398      35.420439014783547
   129   1      2.8920667350529783      5.0092065239916002      35.420439014783547
   130   1        1.44603336752649       4.174338769992997      37.781801615769112
   131   1       4.338100102579471       4.174338769992997      37.781801615769119
   132   1      2.8920667350529827      6.6789420319887993      37.781801615769112
   133   1      2.8920667350529783      1.6697355079972012      37.781801615769112
   134   1        1.44603336752649     0.83486775399860069      40.143164216754677
   135   1       4.338100102579471     0.83486775399860069      40.143164216754684
   136   1      2.8920667350529827      3.3394710159944001      40.143164216754684
   137   1      1.4460333675264918      9.1835452939845972      37.781801615769112
   138   1 -8.2705175158263205e-16      6.6789420319887993      37.781801615769112
   139   1      1.4460333675264918      5.8440742779901962      40.143164216754684
   140   1  1.1046075077389212e-15      8.3486775399859994      40.143164216754684
   141   1 -8.2705175158263205e-16      3.3394710159944001      40.143164216754684
   142   1      4.3381001025794683      9.1835452939845972      37.781801615769112
   143   1      4.3381001025794683      5.8440742779901962      40.143164216754684
   144   1      2.8920667350529774      8.3486775399859994      40.143164216754684
   145   1      2.8920667350529827  8.8714521745691232e-16      42.504526817740249
   146   1      1.4460333675264918      2.5046032619957996      42.504526817740249
   147   1  1.1046075077389212e-15      5.0092065239915993      42.504526817740256
   148   1 -8.2705175158263205e-16  8.8714521745691232e-16      42.504526817740249
   149   1  1.1046075077389212e-15      1.6697355079972001      44.865889418725821
   150   1      4.3381001025794683      2.5046032619957996      42.504526817740249
   151   1      1.4460333675264867      7.5138097859873989      42.504526817740256
   152   1      4.3381001025794665      7.5138097859873954      42.504526817740256
   153   1      2.8920667350529774      5.0092065239915993      42.504526817740256
   154   1      1.4460333675264867      4.1743387699930024      44.865889418725821
   155   1      4.3381001025794665      4.1743387699929988      44.865889418725821
   156   1      2.8920667350529756      6.6789420319887984      44.865889418725821
   157   1      2.8920667350529774      1.6697355079972001      44.865889418725821
   158   1      1.4460333675264867     0.83486775399860025      47.227252019711393
   159   1      4.3381001025794665      0.8348677539985967      47.227252019711393
   160   1      2.8920667350529756      3.3394710159943992      47.227252019711393
   161   1      1.4460333675264876       9.183545293984599      44.865889418725821
   162   1 -1.5570126566464876e-15      6.6789420319887984      44.865889418725821
   163   1      1.4460333675264876      5.8440742779902015      47.227252019711386
   164   1 -6.6591914223139536e-16      8.3486775399859976      47.227252019711386
   165   1 -1.5570126566464876e-15      3.3394710159943992      47.227252019711393
   166   1      4.3381001025794683       9.183545293984599      44.865889418725828
   167   1      4.3381001025794683      5.8440742779902015      47.227252019711393
   168   1      2.8920667350529801      8.3486775399859976      47.227252019711386
   169   1      2.8920667350529787      10.018413047983199 -2.3780791900957586e-16
   170   1      1.4460333675264894      12.523016309978997  1.4682931108809279e-16
   171   1 -2.0676293789565801e-16      15.027619571974798 -3.5671187851436379e-16
   172   1  1.5821751463626973e-16      10.018413047983199 -2.3780791900957586e-16
   173   1 -2.0676293789565801e-16      11.688148555980398       2.361362600985569
   174   1      4.3381001025794692      12.523016309978997  1.4682931108809279e-16
   175   1      1.4460333675264898      17.532222833970597  2.7925351583304866e-17
   176   1      4.3381001025794683      17.532222833970597  2.7925351583304866e-17
   177   1      2.8920667350529792      15.027619571974798 -3.5671187851436379e-16
   178   1      1.4460333675264898      14.192751817976196      2.3613626009855695
   179   1      4.3381001025794683      14.192751817976196      2.3613626009855695
   180   1      2.8920667350529792      16.697355079971995       2.361362600985569
   181   1      2.8920667350529792      11.688148555980398       2.361362600985569
   182   1      1.4460333675264898      10.853280801981798       4.722725201971139
   183   1      4.3381001025794683      10.853280801981798       4.722725201971139
   184   1      2.8920667350529792      13.357884063977597       4.722725201971139
   185   1      1.4460333675264894      19.201958341967796      2.3613626009855704
   186   1  3.1643502927253947e-16      16.697355079971995       2.361362600985569
   187   1      1.4460333675264894      15.862487325973396      4.7227252019711399
   188   1 -4.8545423259388279e-17      18.367090587969194      4.7227252019711399
   189   1  3.1643502927253947e-16      13.357884063977597       4.722725201971139
   190   1      4.3381001025794683      19.201958341967796      2.3613626009855686
   191   1      4.3381001025794683      15.862487325973397      4.7227252019711381
   192   1      2.8920667350529787      18.367090587969198      4.7227252019711399
   193   1      2.8920667350529792      10.018413047983199      7.0840878029567085
   194   1      1.4460333675264894      12.523016309978997      7.0840878029567094
   195   1 -4.8545423259388279e-17      15.027619571974796      7.0840878029567094
   196   1  3.1643502927253947e-16      10.018413047983199      7.0840878029567085
   197   1 -4.8545423259388279e-17      11.688148555980398       9.445450403942278
   198   1      4.3381001025794683      12.523016309978997      7.0840878029567076
   199   1      1.4460333675264891      17.532222833970597      7.0840878029567085
   200   1      4.3381001025794674      17.532222833970597      7.0840878029567085
   201   1      2.8920667350529787      15.027619571974798      7.0840878029567094
   202   1      1.4460333675264891      14.192751817976198       9.445450403942278
   203   1      4.3381001025794674      14.192751817976198       9.445450403942278
   204   1      2.8920667350529783      16.697355079971999       9.445450403942278
   205   1      2.8920667350529787      11.688148555980399       9.445450403942278
   206   1      1.4460333675264891      10.853280801981798      11.806813004927848
   207   1      4.3381001025794674      10.853280801981798      11.806813004927848
   208   1      2.8920667350529783      13.357884063977599      11.806813004927847
   209   1      1.4460333675264887      19.201958341967796      9.4454504039422797
   210   1 -4.1352587579131603e-16      16.697355079971999       9.445450403942278
   211   1      1.4460333675264887      15.862487325973397      11.806813004927848
   212   1 -7.7850632832324378e-16      18.367090587969198      11.806813004927848
   213   1 -4.1352587579131603e-16      13.357884063977599      11.806813004927847
   214   1      4.3381001025794692      19.201958341967796       9.445450403942278
   215   1      4.3381001025794692      15.862487325973397      11.806813004927847
   216   1      2.8920667350529796      18.367090587969198      11.806813004927848
   217   1      2.8920667350529783      10.018413047983199      14.168175605913417
   218   1      1.4460333675264887      12.523016309978997      14.168175605913419
   219   1 -7.7850632832324378e-16      15.027619571974798      14.168175605913417
   220   1 -4.1352587579131603e-16      10.018413047983199      14.168175605913417
   221   1 -7.7850632832324378e-16      11.688148555980398      16.529538206898987
   222   1      4.3381001025794692      12.523016309978997      14.168175605913417
   223   1        1.44603336752649      17.532222833970597      14.168175605913415
   224   1       4.338100102579471      17.532222833970597      14.168175605913419
   225   1      2.8920667350529796      15.027619571974798      14.168175605913417
   226   1        1.44603336752649      14.192751817976196      16.529538206898984
   227   1       4.338100102579471      14.192751817976196      16.529538206898987
   228   1       2.892066735052981      16.697355079971999      16.529538206898987
   229   1      2.8920667350529796      11.688148555980398      16.529538206898987
   230   1        1.44603336752649      10.853280801981798      18.890900807884556
   231   1       4.338100102579471      10.853280801981798      18.890900807884559
   232   1       2.892066735052981      13.357884063977599      18.890900807884556
   233   1      1.4460333675264916      19.201958341967796      16.529538206898987
   234   1  6.3287005854507894e-16      16.697355079971995      16.529538206898987
   235   1      1.4460333675264916      15.862487325973397      18.890900807884556
   236   1  7.8817247846638172e-16      18.367090587969198      18.890900807884559
   237   1  6.3287005854507894e-16      13.357884063977597      18.890900807884556
   238   1      4.3381001025794683      19.201958341967796      16.529538206898987
   239   1      4.3381001025794683      15.862487325973396      18.890900807884556
   240   1      2.8920667350529787      18.367090587969194      18.890900807884559
   241   1       2.892066735052981      10.018413047983199      21.252263408870125
   242   1      1.4460333675264916      12.523016309978999      21.252263408870128
   243   1  7.8817247846638172e-16      15.027619571974798      21.252263408870128
   244   1  6.3287005854507894e-16      10.018413047983197      21.252263408870125
   245   1  7.8817247846638172e-16      11.688148555980398      23.613626009855697
   246   1      4.3381001025794683      12.523016309978997      21.252263408870128
   247   1      1.4460333675264883      17.532222833970597      21.252263408870128
   248   1      4.3381001025794683      17.532222833970597      21.252263408870125
   249   1      2.8920667350529787      15.027619571974796      21.252263408870128
   250   1      1.4460333675264883      14.192751817976198        23.6136260098557
   251   1      4.3381001025794683      14.192751817976196      23.613626009855697
   252   1      2.8920667350529774      16.697355079971995      23.613626009855697
   253   1      2.8920667350529787      11.688148555980396      23.613626009855697
   254   1      1.4460333675264883      10.853280801981798      25.974988610841269
   255   1      4.3381001025794683      10.853280801981796      25.974988610841265
   256   1      2.8920667350529774      13.357884063977595      25.974988610841265
   257   1      1.4460333675264891      19.201958341967796      23.613626009855693
   258   1 -9.7090846518776557e-17      16.697355079971995      23.613626009855697
   259   1      1.4460333675264891      15.862487325973397      25.974988610841265
   260   1  7.9400266789631563e-16      18.367090587969194      25.974988610841265
   261   1 -9.7090846518776557e-17      13.357884063977595      25.974988610841265
   262   1      4.3381001025794665      19.201958341967796      23.613626009855697
   263   1      4.3381001025794665      15.862487325973397      25.974988610841269
   264   1      2.8920667350529783      18.367090587969198      25.974988610841265
   265   1      2.8920667350529774      10.018413047983197      28.336351211826837
   266   1      1.4460333675264891      12.523016309978997      28.336351211826834
   267   1  7.9400266789631563e-16      15.027619571974794      28.336351211826834
   268   1 -9.7090846518776557e-17      10.018413047983197      28.336351211826837
   269   1  7.9400266789631563e-16      11.688148555980396      30.697713812812406
   270   1      4.3381001025794665      12.523016309978997      28.336351211826837
   271   1        1.44603336752649      17.532222833970597      28.336351211826834
   272   1       4.338100102579471      17.532222833970597      28.336351211826837
   273   1      2.8920667350529783      15.027619571974798      28.336351211826834
   274   1        1.44603336752649      14.192751817976196      30.697713812812403
   275   1       4.338100102579471      14.192751817976196      30.697713812812406
   276   1      2.8920667350529827      16.697355079971999      30.697713812812403
   277   1      2.8920667350529783      11.688148555980399      30.697713812812406
   278   1        1.44603336752649      10.853280801981798      33.059076413797975
   279   1       4.338100102579471      10.853280801981798      33.059076413797975
   280   1      2.8920667350529827      13.357884063977599      33.059076413797975
   281   1      1.4460333675264918      19.201958341967796      30.697713812812406
   282   1 -8.2705175158263205e-16      16.697355079971999      30.697713812812403
   283   1      1.4460333675264918      15.862487325973396      33.059076413797975
   284   1  1.1046075077389212e-15      18.367090587969198      33.059076413797975
   285   1 -8.2705175158263205e-16      13.357884063977599      33.059076413797975
   286   1      4.3381001025794683      19.201958341967796      30.697713812812406
   287   1      4.3381001025794683      15.862487325973396      33.059076413797975
   288   1      2.8920667350529774      18.367090587969198      33.059076413797975
   289   1      2.8920667350529827      10.018413047983199       35.42043901478354
   290   1      1.4460333675264918      12.523016309978997      35.420439014783547
   291   1  1.1046075077389212e-15      15.027619571974798      35.420439014783547
   292   1 -8.2705175158263205e-16      10.018413047983199       35.42043901478354
   293   1  1.1046075077389212e-15      11.688148555980398      37.781801615769112
   294   1      4.3381001025794683      12.523016309978997      35.420439014783547
   295   1      1.4460333675264867        17.5322228339706      35.420439014783547
   296   1      4.3381001025794665      17.532222833970597       35.42043901478354
   297   1      2.8920667350529774      15.027619571974798      35.420439014783547
   298   1      1.4460333675264867        14.1927518179762      37.781801615769119
   299   1      4.3381001025794665      14.192751817976196      37.781801615769112
   300   1      2.8920667350529756      16.697355079971995      37.781801615769112
   301   1      2.8920667350529774      11.688148555980398      37.781801615769112
   302   1      1.4460333675264867        10.8532808019818      40.143164216754684
   303   1      4.3381001025794665      10.853280801981796      40.143164216754684
   304   1      2.8920667350529756      13.357884063977597      40.143164216754684
   305   1      1.4460333675264876      19.201958341967799      37.781801615769105
   306   1 -1.5570126566464876e-15      16.697355079971995      37.781801615769112
   307   1      1.4460333675264876      15.862487325973399      40.143164216754677
   308   1 -6.6591914223139536e-16      18.367090587969194      40.143164216754677
   309   1 -1.5570126566464876e-15      13.357884063977597      40.143164216754684
   310   1      4.3381001025794683      19.201958341967799      37.781801615769112
   311   1      4.3381001025794683      15.862487325973399      40.143164216754684
   312   1      2.8920667350529801      18.367090587969194      40.143164216754677
   313   1      2.8920667350529756      10.018413047983199      42.504526817740256
   314   1      1.4460333675264876      12.523016309978999      42.504526817740249
   315   1 -6.6591914223139536e-16      15.027619571974796      42.504526817740249
   316   1 -1.5570126566464876e-15      10.018413047983199      42.504526817740256
   317   1 -6.6591914223139536e-16      11.688148555980398      44.865889418725821
   318   1      4.3381001025794683      12.523016309978999      42.504526817740256
   319   1       1.446033367526492      17.532222833970593      42.504526817740249
   320   1      4.3381001025794692      17.532222833970597      42.504526817740249
   321   1      2.8920667350529801      15.027619571974796      42.504526817740249
   322   1       1.446033367526492      14.192751817976195      44.865889418725821
   323   1      4.3381001025794692      14.192751817976198      44.865889418725821
   324   1      2.8920667350529814      16.697355079971995      44.865889418725821
   325   1      2.8920667350529801      11.688148555980398      44.865889418725821
   326   1       1.446033367526492      10.853280801981795      47.227252019711393
   327   1      4.3381001025794692      10.853280801981798      47.227252019711393
   328   1      2.8920667350529814      13.357884063977597      47.227252019711393
   329   1      1.4460333675264905      19.201958341967796      44.865889418725821
   330   1  1.2657401170901579e-15      16.697355079971995      44.865889418725821
   331   1      1.4460333675264905      15.862487325973397      47.227252019711393
   332   1  -3.553143023887898e-16      18.367090587969198      47.227252019711393
   333   1  1.2657401170901579e-15      13.357884063977597      47.227252019711393
   334   1      4.3381001025794736      19.201958341967796      44.865889418725821
   335   1      4.3381001025794736      15.862487325973397      47.227252019711393
   336   1      2.8920667350529832      18.367090587969198      47.227252019711393
   337   1      2.8920667350529792      20.036826095966397 -4.7561583801915171e-16
   338   1      1.4460333675264894      22.541429357962198  -2.283802876259254e-16
   339   1 -4.8545423259388279e-17      25.046032619957995  2.9365862217618559e-16
   340   1  3.1643502927253947e-16      20.036826095966397 -4.7561583801915171e-16
   341   1 -4.8545423259388279e-17      21.706561603963596      2.3613626009855699
   342   1      4.3381001025794683      22.541429357962198 -2.0047371270261759e-15
   343   1      1.4460333675264891      27.550635881953795  8.1569753197829658e-16
   344   1      4.3381001025794674      27.550635881953795  8.1569753197829658e-16
   345   1      2.8920667350529787      25.046032619957995  2.9365862217618559e-16
   346   1      1.4460333675264891      24.211164865959397      2.3613626009855682
   347   1      4.3381001025794674      24.211164865959397      2.3613626009855682
   348   1      2.8920667350529783      26.715768127955194       2.361362600985569
   349   1      2.8920667350529787      21.706561603963596      2.3613626009855699
   350   1      1.4460333675264891      20.871693849964998       4.722725201971139
   351   1      4.3381001025794674      20.871693849964998       4.722725201971139
   352   1      2.8920667350529783      23.376297111960795      4.7227252019711381
   353   1      1.4460333675264887      29.220371389950994      2.3613626009855713
   354   1 -4.1352587579131603e-16      26.715768127955194       2.361362600985569
   355   1      1.4460333675264887      25.880900373956596       4.722725201971139
   356   1 -7.7850632832324378e-16      28.385503635952393       4.722725201971139
   357   1 -4.1352587579131603e-16      23.376297111960795      4.7227252019711381
   358   1      4.3381001025794692      29.220371389950994      2.3613626009855695
   359   1      4.3381001025794692      25.880900373956596      4.7227252019711372