(written by ASE)

3954 atoms
2 atom types

0.0      28.758912319027587  xlo xhi
0.0      31.066736431430968  ylo yhi
0.0      64.205538020959523  zlo zhi

Atoms # atomic

     1   1  -0.0068203634570396954    -0.04377764822849492      33.838953846208767
     2   1      1.5413175453166348      1.3735002220945514      35.861011555665968
     3   1   -0.064006640472739212   -0.030226645244487704      37.894651885843743
     4   1      1.4039604209777561      1.4176840065578395      39.849036064402789
     5   1    0.055387535195875637    0.028770723685577024      41.969110674171908
     6   1      1.4289440147688734      1.4069498230572559      44.019873150139631
     7   1    0.014806804206670257    0.046336980738163287       46.06968810765499
     8   1      1.4291272985312513      1.3321800939705124      48.029068352928995
     9   1   -0.028301662762685351    0.050336414089794113      50.011315801740061
    10   1      1.4246276453413413      1.4321743503960329      52.155795648487313
    11   1    0.046261163590106368   -0.018790727052058823      54.082307195382164
    12   1      1.4739870091124194      1.5224555052237261      56.080775757282325
    13   1   0.0031968606546634972    0.095302482551848186      58.239074396653599
    14   1       1.423157210137848      1.3970190747934943      60.114257202961028
    15   1   0.0075194153963931282  -0.0026596653061430595      62.232874220770917
    16   1   -0.021332896451338526       2.882073756921161      33.854053910557916
    17   1      1.3924144143805168      4.2192666426338912      35.795186043500216
    18   1   -0.055446689998583903       2.781245872099797      37.817252565979068
    19   1      1.4090224189845628      4.2529636330687595      40.063317509934443
    20   1    0.076427437316820279       2.799171927903652      41.916909310529213
    21   1      1.3845719689320874       4.270886255106233      43.988313353578256
    22   1    0.014902758637589454      2.8786754344368282      46.020711270455699
    23   1      1.3910976591364124       4.269899913246423      47.988022300638178
    24   1   -0.017772072248203111      2.8302333231367292      50.046634159902936
    25   1      1.5177986271141861       4.283418513388618      52.051296085051298
    26   1    0.013593118420467624      2.8682859659220106      54.199758107654269
    27   1      1.4432640809730375      4.1831568017107363      56.094229902545599
    28   1    0.077297979749229057      2.7095470860340973      58.209853494814844
    29   1      1.4517631472858197      4.1489340071507792      60.196265603647362
    30   1  -0.0076301773257279968      2.8117647650727133      62.218976196762398
    31   1    0.027569827233557678      5.6928376714193121      33.793522011536673
    32   1      1.4647191858927378      6.9824840612549126      35.844366173982081
    33   1    -0.02836626979752065      5.6781748150692639       37.88180103906496
    34   1      1.3778816963943927      7.0643352452459816      39.884212642645288
    35   1   -0.015941569405481477      5.6317025980195465       41.97819958319436
    36   1      1.4726753376390647      7.0801966685872166      44.006374230545589
    37   1   -0.040276483296027836      5.7292081411559019      45.975849480009423
    38   1      1.4235921548253501      7.0871152463180351      48.097408011740356
    39   1     0.01696853564005062      5.6310873211267349      50.077652786903052
    40   1      1.4601158513666199      7.0375472107821944      52.002868714419812
    41   1   -0.077243056700820642      5.7002021943179964      54.049014593319953
    42   1      1.4082635464144817       7.085527180541253      56.087809506075899
    43   1   -0.011654726087231466      5.6041325256947347      58.152389982587252
    44   1      1.3327486308600647      7.0161709732671431      60.226729377347787
    45   1    0.012341549394399697      5.7134449062718904      62.218397910731305
    46   1    0.044623978577674236      8.4959165432268264      33.789991106398602
    47   1        1.47297342016114      9.9259078956013571      35.892768752020011
    48   1  -0.0055295067258782976      8.4072497187282718      37.982941130310195
    49   1      1.4477197525473757      9.9582812637369784      39.915766108441105
    50   1    0.099750734424799578      8.5203647203979394      41.999499722476799
    51   1      1.4476626133014983       9.862236758104455      44.000439143363216
    52   1   0.0032436035873700838      8.4405716210771828       45.97661377064302
    53   1      1.4555553578493556      9.8941849321691695      48.029061490443716
    54   1   -0.018208738333081721      8.5328177448027471      50.027270942397365
    55   1       1.352991122205168      9.8982560603114784      52.047153826538761
    56   1    0.042893209612259037      8.4115859879099304      53.988061500482395
    57   1       1.463250523748266      9.8994012062172647      56.168956255133359
    58   1   -0.032116179808675684      8.4462428914733962      58.204903679499985
    59   1      1.3539731499105021      9.8619917542480007      60.136435973456592
    60   1   -0.032281711045867703      8.4485115095639944      62.203796048624447
    61   1    0.083376033534106123       11.31113106303137      33.816903102561731
    62   1      1.3642140582581279       12.69361987504465      35.931247854710691
    63   1    -0.10030067176716487      11.274373625080003      37.950444672863938
    64   1      1.4311451717522692      12.697853202699186      39.907368408343523
    65   1   -0.021892985010043248      11.320680526242313      41.970704832017681
    66   1      1.4036295489222435      12.778493125287651      43.887269988048587
    67   1   -0.043407834055942313      11.265489822839879      45.997994751761262
    68   1      1.4735853206818066        12.7317809759925       47.98954320724247
    69   1    0.014684534959422207      11.214073943576611      50.113380734521073
    70   1       1.381614267733748       12.70947845748784      52.015416749710333
    71   1   -0.055622761091948025      11.282281500003448      54.112473123837212
    72   1      1.4150143387767999       12.71031073225889      56.112593052287195
    73   1    0.050676748427538748      11.220306961354565      58.127919316848775
    74   1      1.4399258179236647      12.731075452564379      60.211011472716471
    75   1    0.059339425357765818      11.151907211619653      62.249352059615433
    76   1   -0.019336630894377503      14.082521002266365       33.86210893409541
    77   1       1.356593382163807      15.594762217648055      35.901019393323068
    78   1  -0.0071731925434442194      14.063410972655637      37.810624997143762
    79   1       1.388545165620211       15.54452804593787      39.927987893579427
    80   1   -0.039310880782255114      14.071424289263714      41.939352662692443
    81   1       1.422842358388366       15.55364707657702      44.040139929813321
    82   1   -0.015235671665266202      14.116936262263707      46.036448882209051
    83   1      1.3219198570167088      15.449841814659248      47.921204405917578
    84   1   0.0082735606298780223       14.14093471781932      50.057731106341215
    85   1      1.4500714439467215       15.56731131636543      52.144130398064739
    86   1    0.038893598116273992      13.989931168601824      54.121946459747257
    87   1      1.3951967409829313      15.428994377109202      56.108584330020086
    88   1    -0.01084886614024322      14.099350169708257      58.161463271569382
    89   1      1.5098037271404854      15.557233346590804       60.17077648683447
    90   1   -0.045733967726617732      14.136735130480977      62.321825964911618
    91   1     0.03539463615980102      16.885596727043161      33.913027011385253
    92   1      1.3351506823063859       18.30933375429731      35.948508247046014
    93   1    0.076287381586386066      16.950037988016231      38.035845129371388
    94   1      1.3930774568268207      18.257027314184356      40.051368874900334
    95   1   -0.055996892158357452      16.937446934334083      41.982840585403935
    96   1      1.5021977822246957      18.446818637020904      43.892665917284354
    97   1  -0.0092690434204248662      16.955733529275779      46.043608070226483
    98   1        1.45366934322648      18.327971654374679      48.046362663798106
    99   1   -0.045086103082121881      16.902704857754298      49.997564641007735
   100   1      1.4310540840761725      18.313931010959038      52.023489584118927
   101   1    0.044384618966773037      17.077451418237672      54.094695739919111
   102   1      1.4219754359435481      18.325212153517828      56.197467645642391
   103   1    0.099913248950946734      16.958559861633002      58.157891540548626
   104   1      1.3942692167514952      18.322469624689944      60.197779659646478
   105   1    0.057008082252030516      17.031464561637787      62.209198281624573
   106   1    0.034836041487244951       19.71646484304884      33.868879955986259
   107   1      1.3981983765408739      21.147627792543172      35.873650516766453
   108   1    -0.12087767357269107      19.802605531914335      37.875612678920916
   109   1        1.37413207595611      21.159333763463806      39.886456132840451
   110   1   -0.024118046008750789       19.81844362360923      41.861743688777835
   111   1      1.5013898778224688      21.212614763559017      43.945769803782241
   112   1   -0.013542267906932274      19.737064388153023      45.945290953556764
   113   1      1.4920762301795019      21.149735333327961      48.005587875635648
   114   1    -0.01629350333223116      19.705754593510701      50.002358765468884
   115   1      1.3555758611166995      21.180584352994895      52.052999024621251
   116   1   -0.083431226700465294      19.772767550229531      54.126292664627506
   117   1       1.516231517545265       21.18927179994521      56.135223022758808
   118   1   -0.062016387152509955      19.746192896581192       58.18231378373315
   119   1      1.3413835887512622      21.188904731972251      60.110047431098252
   120   1    0.034744603840642672      19.699521383533504      62.215099361848843
   121   1   -0.013472598534910701      22.522227882721243      33.841693168835192
   122   1      1.5592325721961995      24.003397987098243      35.914315101258559
   123   1  -0.0066572613722454439       22.62409403295317      37.994538560469778
   124   1      1.4738666753053753      24.013405480927396      39.914565177433055
   125   1    0.049945928823117033      22.534811691387144      41.967494044552467
   126   1      1.4171609150912321      24.082367312164482      43.940471664968385
   127   1   -0.063926848583257409      22.584884282737406      46.004970919395959
   128   1       1.464302461599279       24.03395288583684       48.06516155018501
   129   1    0.041390981902006435      22.568187532707995      50.089954624676473
   130   1      1.4696729307674909      24.031449428477043      52.134671996139673
   131   1   -0.077428708170165103      22.620592106370577      54.134226974027442
   132   1      1.3998548510370781      23.976304142362327      56.156466834367087
   133   1   -0.087986413191063595      22.575163726174218      58.092845142799021
   134   1      1.4160026538154491      23.944468990601884      60.171663187794721
   135   1 -0.00027592722522401671      22.607256061696383      62.243044508296244
   136   1    0.060227569764329539      25.384577100002616      33.896235199890363
   137   1       1.426481477867076      26.868736855750768      35.790959312207342
   138   1   -0.024257881807749168      25.431778971027111      37.819237805923827
   139   1      1.4084254027722094      26.807480042830939      39.929704891907122
   140   1   0.0072510432530003416      25.320855531072574      41.999784536046761
   141   1      1.3827835223363409      26.780781239881819      43.891681050941372
   142   1    0.010043209430438144      25.452061743633109      45.971385583488072
   143   1       1.462631697671759      26.907389986411687      48.043276327972826
   144   1   -0.019269098637057835      25.470039130996341       50.14052936579656
   145   1      1.5224725351328448      26.875856833256179      52.088790586405018
   146   1   -0.055198586506029858      25.356285682550983      54.074477827481402
   147   1       1.409560566470589      26.807331306285551      56.162446564813571
   148   1    0.039184239310617271       25.39906023041495      58.135845967372319
   149   1      1.3583036516942781       26.78354213948688      60.124952504725442
   150   1   -0.064145863513222628      25.492128644470746       62.18141734899249
   151   1    0.011964978296355554      28.201271088237874      33.844542760068713
   152   1      1.3702806166510741      29.722534831090417      35.877865910300059
   153   1    0.035262773441106426       28.26244173865792      37.941495200878421
   154   1      1.4491567938533902      29.628256056946263       39.93044935019207
   155   1   -0.022443004242491224      28.238862093479813      41.956154125476715
   156   1      1.4639379140959101      29.676770906720837      44.036870051440545
   157   1   -0.087180654799041801      28.253949048935958      45.968558372234583
   158   1      1.5167771632938305      29.638567464825822      48.037584403200519
   159   1    0.081690026461074011      28.184596371522478      50.022703866729969
   160   1      1.3923666981858913      29.712824386787293      52.087524721165821
   161   1   -0.016992620266209953      28.344438275283792      54.021191122161802
   162   1      1.4218198490550318      29.712969976110109      56.020491035223792
   163   1  -0.0031942095177288515      28.188050913938703      58.170045020266684
   164   1      1.4897187361150022      29.722678413126893       60.22964541883681
   165   1    0.035707507425303743      28.266910146303864      62.168158665354717
   166   1      2.8606263685958084   -0.012012196438262346      33.830693562372495
   167   1      4.3519239193900008      1.3875082792460098      35.928336919437818
   168   1      2.8366776964752414     0.10412753354646492      37.901916437204733
   169   1      4.2469018548999466      1.3555078014766053      39.840432862939281
   170   1      2.8525141964400968   0.0080637491731846197      42.004839586122827
   171   1      4.4702976793982865      1.4863213476789341      44.005895458683199
   172   1      2.8239773717729006  -0.0090298384409578502      45.932935416676997
   173   1      4.3346178428680666      1.3551781090684278       48.10803194009069
   174   1      2.8487340165934838     0.11209446197957081      50.115208550508925
   175   1      4.3578722014792071      1.4177513089862845      52.125774570302312
   176   1      2.8715240515214902   -0.010179991185626583      54.146639465356046
   177   1      4.2921221160821119      1.3219118503152745      56.129529938988341
   178   1      2.8881157784275886    0.017571254618181438      58.216268291823397
   179   1      4.3098045982703654      1.3373184804406162      60.125052185768084
   180   1      2.8898081254944086    0.067735459201366074      62.174435070596509
   181   1      2.9283124576716304      2.7791632802721438      33.881766236531099
   182   1       4.370214878085088      4.2314938944337142      35.885564978791791
   183   1      2.9263100982293118      2.7172887081157775      37.991708644794727
   184   1      4.2801793566363102      4.2539674788376516      39.904650297142027
   185   1      2.8788592230244214      2.7967245025939795      42.040454267526378
   186   1      4.2804907650352657       4.291008464257442      44.022957719404701
   187   1      2.8581577523191326      2.8739374088685317      46.008749997778857
   188   1      4.3495516589330903      4.2656854180476911      47.991605417342846
   189   1      2.8973052314551127      2.8680666643195587      50.160605714399267
   190   1      4.3512126130062914       4.270805346539043      52.040035045757875
   191   1      2.7265376898321323       2.872785659830948      54.162586283268055
   192   1       4.245921836270913      4.1594965719006307      56.114860384338279
   193   1      3.0023919749006662      2.8704512465086509      58.074039822125684
   194   1      4.3668392966821203      4.2224327658737417      60.145037289539601
   195   1       2.912922509039511      2.8864368741317916      62.217192964644511
   196   1      2.8941590563081538       5.596724733858248      33.874438723471556
   197   1       4.225225032763662      7.1030416092629816      35.951108749929091
   198   1      2.9541640117989645      5.6464869640343274      37.939145821751374
   199   1      4.2381403682781382      7.0738185159233362      39.969873758519618
   200   1      2.7628528646464159      5.6370457674759367      41.911928465383696
   201   1      4.2768142037630081       7.025106694863279      44.079110357775505
   202   1      2.8597906616843023      5.6163413755533389      45.964471910072021
   203   1      4.1947045173178168      7.0595095643235615      48.054375903756231
   204   1      2.8811476212546632      5.6870586823640048       50.15689455787583
   205   1      4.2678172039302202        7.07193882456259      52.104586196956632
   206   1      2.7753720525250172      5.6352835671084716      54.119230619318152
   207   1      4.3507333381413114      7.1001462702966043      56.005471097053288
   208   1      3.0246311022110057      5.6248660487839954      58.223908840734161
   209   1      4.2515610626611986      7.1434216544895133       60.15324102335677
   210   1      2.9100335393951497      5.6093755404019028      62.150716695798607
   211   1      2.9048819678019426      8.4837020469229181      33.868182740801252
   212   1      4.2802322498075975      10.025072840858533      35.792480826978498
   213   1      2.8922899996444045      8.4593701847628822      37.919116792263615
   214   1       4.349024876713627      9.9001288007521566      39.954004742132305
   215   1      2.8147303656422848      8.5186370841037871      41.836543959391257
   216   1      4.2373647206555187      9.8859632185295769      44.053743268598964
   217   1      2.8828660497919079      8.4799982010423136      45.934067643817244
   218   1      4.3559404375707773      9.8742663967143738      48.095044261252674
   219   1      2.8613089904072129       8.447250644602061      50.194951440997571
   220   1      4.3819370367064217      9.8394175809352689       52.03907627950926
   221   1      2.8871536322570073       8.447690721662191      54.169836977995317
   222   1      4.3030304257363685      9.8666316296212138      56.169647202812541
   223   1      2.8043169866893276       8.412669086705769      58.140051214702474
   224   1      4.3127675246120356       9.912257211762137      60.238184901130566
   225   1      2.8743874279350812      8.4231101061038078      62.274025455863516
   226   1      2.8790340100769316      11.278174331421571      33.823745696428659
   227   1      4.2605645454946295      12.765363778907112      35.845951796522577
   228   1      2.7982433668491926      11.296656244027195      37.922469717822672
   229   1      4.3354156919137594      12.720486058261727      39.931333574664734
   230   1      2.8643559613960599      11.268465812755121      41.969019619784497
   231   1      4.2957969503003248      12.678161012077778       43.92820100581929
   232   1      2.9413960224120546      11.378941796107355      46.023120978600922
   233   1      4.2649380059578315      12.739461733433295      48.058299916136811
   234   1      2.8347405595041821      11.207189289897707      49.979010033788398
   235   1      4.2862984174132341      12.689633439854452       52.02514396586669
   236   1      2.8792774655494151      11.314231371464722      54.087370742143406
   237   1      4.3606825663081601       12.66039347246889      56.158022467427131
   238   1      2.9764879917538067      11.233170272297169      58.053797896194318
   239   1      4.2978283075808887       12.65036714656372      60.122297178612946
   240   1      2.8448201620666311      11.275137255200709      62.236885976253305
   241   1      2.8616474357967925      14.149402422479152       33.83716455061856
   242   1       4.318051300392014      15.504267358749331       35.91401549730287
   243   1      2.8513145056458784      14.028324407225318      37.931378961822034
   244   1      4.2797165175693728      15.437345856445772      39.995829408462875
   245   1      2.8607689158267364      14.091744330327678      42.003704598996677
   246   1      4.2769257101493414      15.617089128480552      43.974308369162536
   247   1      2.9387778124981594      14.142550811042064        46.0590164853594
   248   1      4.3209982733389127      15.574318883149427      48.036613469542345
   249   1      2.9217856200149548      14.128841633181514      49.946796913525858
   250   1      4.3354414122442737      15.497600078432574      52.051868809686191
   251   1      2.8071541009971117      14.106897640345583      54.117352259682235
   252   1      4.3234165593101119      15.564128430245477      56.068345582887588
   253   1      2.8223941248015114      14.188603517405856      58.204343375737913
   254   1      4.3034476613232631      15.481424459102426      60.180801282560225
   255   1      2.9787643534746744      14.062087560315296       62.15001322252062
   256   1      2.8981098655747708      16.983419973977252      33.842005785175047
   257   1      4.3022637052808994      18.326944297773977      35.841752605646128
   258   1      2.8228590932189186       16.95325748818173      37.890365742744507
   259   1      4.2749546527255378       18.31123437550362      39.943290492665113
   260   1      2.8754046221692628      16.967225605306734      41.922382714458116
   261   1      4.2835954505042384      18.385703882535207      43.926484627291416
   262   1      2.8283190346886782      16.870844893313588      45.988936804450447
   263   1      4.2985896586179599      18.382640531247908      48.099946666320243
   264   1      2.8787235668334077      17.003777436348869      49.967911537565328
   265   1      4.3795666538923124      18.281255167667833      52.056655813910744
   266   1      2.9023806294455299       16.89611833243146      54.185093306941205
   267   1      4.3144685735095472      18.365465961160208       56.20397829940525
   268   1      2.8509978705674373      16.970220703048277          58.08618696373
   269   1      4.2804357258279468      18.290102597725419      60.166646566682658
   270   1      2.8099483545376245      16.996382447562357      62.170843239014935
   271   1      2.9182909300163602      19.769676897533841      33.860497453599621
   272   1      4.2790530556912092       21.20821776634217      35.931747467601163
   273   1       2.886398065214737      19.718904343529449      37.876612545197105
   274   1      4.2575966946199806      21.202544084126888      39.887984851635693
   275   1      2.9751886507595406      19.793296441999594      41.924482465448115
   276   1      4.1817089883453082      21.165204956675083      44.063051679379953
   277   1      2.8434032045595736      19.744669435338814      46.061314723760518
   278   1      4.2513032947332832      21.262221300872312      47.996989844399614
   279   1      2.9389494235853775      19.853530157107535      50.079731902856537
   280   1      4.2639036417986107      21.132560045500778      52.014061057127918
   281   1      2.8689910467704656      19.712623881660196      54.106373457385409
   282   1      4.3348505723516615      21.181809274008966      56.136145445490854
   283   1      2.8670113800632087       19.79885921755594      58.115183098284774
   284   1      4.2959354318117304      21.202975031702806      60.166119258260558
   285   1      2.8735738427134669      19.752024521048028      62.192571350536106
   286   1       2.888455775685522      22.614612670782069      33.825618076982209
   287   1      4.3502793051930393        23.9888531203495      35.794898560119982
   288   1      2.8312550332718156      22.620269020228545      37.903014580559145
   289   1      4.2608087666948737      24.076435867734691      39.994400607238433
   290   1      2.9551680993504523      22.645420471300088       42.02921884658101
   291   1      4.3450242865487425      24.030662834943907      43.984021383303627
   292   1      2.9479237414996442      22.609459477172354      46.000115104300647
   293   1      4.2974254330469037      24.081190010767372      48.079510601663216
   294   1      2.7791954666870828      22.626430788048445      49.994367799987856
   295   1      4.3222636889243304       23.97027540959477      52.167724206969751
   296   1      2.8236605786265816      22.594603791844943      54.098844480067413
   297   1      4.3809977784837271      23.970415746025303      56.196405687689179
   298   1      2.9251667539068755      22.565357169768909        58.1687269256119
   299   1      4.3339815586112813      24.030532944349055      60.145460041069846
   300   1      2.8551819617669798      22.659092498651098      62.287513479562691
   301   1      2.8385645246474325      25.468086797491935      33.884703003951195
   302   1      4.2877435852878252      26.738921518688546      35.934208510048244
   303   1      2.8643044367567967       25.48357961628415      37.863482876707792
   304   1        4.25550134796437      26.840298687884196      39.853277607431224
   305   1      2.8592666650882084      25.448294734960236      41.952446844325713
   306   1      4.2410431424235124      26.836503138561184      44.052017476620961
   307   1      2.8074645807038396      25.449801646499196      45.939399704564714
   308   1      4.3101146980360312      26.891091942923598       48.03102879134871
   309   1      2.8172076216625181      25.378020809780029      50.137770509485563
   310   1      4.4198682832281957      26.831617565303148      52.066391941572085
   311   1      2.9016784266771798      25.427495944603688      54.183815072976579
   312   1      4.3082108356182331      26.863453149049143      56.153786839998375
   313   1      2.7616245891762721      25.416271303261741      58.181957426991794
   314   1      4.3019331868441473      26.774109136681361      60.174021426562049
   315   1      2.9282725358314234      25.452236491277873      62.225195551535123
   316   1      2.8921902379822542      28.185208690751459       33.90116710057557
   317   1      4.3026526707286967      29.592773707804959      35.942078220201545
   318   1      2.8343029500956987      28.220054087144067      37.964619963096368
   319   1      4.3411525687413315      29.773662753483976      39.979362665726732
   320   1      2.9036637590791061      28.280704401232182      41.895338137437527
   321   1      4.3538468079778081      29.571820094851422      43.883413798234265
   322   1       2.841204622249808       28.34561006986242       46.04448701663911
   323   1      4.3705345276668268      29.735622849088472      48.023164442555647
   324   1      2.9427920452394432      28.204844702195857      50.101721119825818
   325   1      4.2347980950156661      29.579635839188708      52.024830711385476
   326   1      2.8899650101588912      28.172256123819036      54.165708145836021
   327   1      4.3609527850619276      29.583279125565316      56.184962121637028
   328   1      2.8739624289750796      28.216908901280362      58.131924209656297
   329   1      4.3494267732234739      29.632355620996211      60.122421717103038
   330   1      2.8890261410903673      28.233212261078961      62.176037542490775
   331   1      5.7595825906969838    0.057036878398526919      33.848052581470085
   332   1      7.2113300487270173      1.5250212157264678      35.907194419545036
   333   1      5.7364898059094456     0.01731768353083735      37.849387910108092
   334   1      7.2003606492903671      1.5074154528749446      39.982837208512834
   335   1      5.7226834882384079   -0.062017114446974268      41.959973492218026
   336   1      7.2070418565576686      1.5014571667205574      44.018369679368682
   337   1      5.6879160298139011   -0.030836398905236789      46.057475714297638
   338   1      7.1607863731549903       1.470624956399019      48.022214495825608
   339   1       5.637443161444561    0.022275130704204317      50.081198011155806
   340   1      7.1217500498268791      1.3429021619069064      52.040007983144299
   341   1      5.8129721705534916     0.06680667349527844      54.021272212041346
   342   1      7.2384931748939092      1.3634327385158118      56.132428880908982
   343   1      5.7219913953691028   -0.046976405349399945      58.202986621941434
   344   1      7.2443820612489223      1.4509726985109563      60.127060259159755
   345   1      5.7672047144203082   -0.044613547797867609      62.195379545803348
   346   1      5.7196287214643409      2.8280212801487554      33.855025560998619
   347   1      7.0098273298476661      4.2385981957077057      35.842593640549573
   348   1      5.7384637661897999       2.764189274607975      37.896369385820648
   349   1      7.1479996090039757      4.1930864977195759       39.88699425643366
   350   1      5.7070689083659225      2.7774820988339055      41.946671403444256
   351   1      7.1706223433858378      4.1986616191199273      43.961669567703375
   352   1      5.6934833305863455      2.8264008902939874        46.0235769715907
   353   1       7.184955265164727      4.2845173916508061      48.044766569355453
   354   1      5.7705018557692425      2.7354429157398861       50.12473281753163
   355   1      7.1743994654792402      4.1710675236370696      52.049802919501879
   356   1      5.8928733131540154        2.83548159956448      54.104167055268427
   357   1      7.1899355381754591      4.2364813847160656      56.117493666152768
   358   1      5.6703511765370429      2.7672732902276396      58.175549398343904
   359   1      7.2845803945643102      4.2502436075448466      60.139332235622987