LAMMPS (10 Dec 2025)
OMP_NUM_THREADS environment is not set. Defaulting to 1 thread.
  using 1 OpenMP thread(s) per MPI task
units metal
boundary p p s
atom_style atomic
timestep 0.002
read_data data.interface
Reading data file ...
  orthogonal box = (0 0 0) to (28.758912 31.066736 64.205538)
  1 by 1 by 4 MPI processor grid
  reading atoms ...
  3954 atoms
  read_data CPU = 0.014 seconds

pair_style eam/alloy
pair_coeff * * /mnt/c/Users/iwash/Documents/Repositories/Lammps/potentials/AlCu.eam.alloy Al Cu
Reading eam/alloy potential file /mnt/c/Users/iwash/Documents/Repositories/Lammps/potentials/AlCu.eam.alloy with DATE: 2008-10-01

neighbor 2.0 bin
neigh_modify delay 10 check yes

thermo 100
thermo_style custom step temp pe press pxx pyy lx ly lz

print '=== Phase 0: Shake (High-T limit) ==='
=== Phase 0: Shake (High-T limit) ===
velocity all create 1000.0 27153 dist gaussian
fix shake all nve/limit 0.1
run 1000
Neighbor list info ...
  update: every = 1 steps, delay = 10 steps, check = yes
  max neighbors/atom: 2000, page size: 100000
  master list distance cutoff = 8.6825
  ghost atom cutoff = 8.6825
  binsize = 4.34125, bins = 7 8 14
  1 neighbor lists, perpetual/occasional/extra = 1 0 0
  (1) pair eam/alloy, perpetual
      attributes: half, newton on
      pair build: half/bin/atomonly/newton
      stencil: half/bin/3d
      bin: standard
Per MPI rank memory allocation (min/avg/max) = 3.482 | 3.709 | 3.938 Mbytes
   Step          Temp          PotEng         Press           Pxx            Pyy             Lx             Ly             Lz      
         0   1000          -13369.419      11716.663      8964.9492      10386.224      28.758912      31.066736      60.462699    
       100   610.91501     -13170.903      18525.001      17592.065      21274.921      28.758912      31.066736      61.854967    
       200   586.41719     -13158.249      9112.1851      9616.4273      13771.673      28.758912      31.066736      62.907953    
       300   592.18354     -13161.023      1849.2193      1984.8304      8965.8597      28.758912      31.066736      63.256853    
       400   603.83255     -13166.815      2644.1336      1390.3987      8744.5012      28.758912      31.066736      63.396323    
       500   585.72269     -13157.479     -3476.7214     -4049.255       3550.6148      28.758912      31.066736      63.577313    
       600   553.79154     -13141.106     -9477.7185     -9305.1561     -1682.7653      28.758912      31.066736      64.457313    
       700   561.18559     -13144.881     -9942.9903     -9664.2289     -2405.603       28.758912      31.066736      64.638552    
       800   582.33758     -13155.709     -3754.0145     -4057.409       3268.4097      28.758912      31.066736      63.858349    
       900   588.96046     -13159.242      2447.7159      1252.0127      7968.2972      28.758912      31.066736      63.441181    
      1000   598.71159     -13164.382      4132.792       3238.4701      10050.528      28.758912      31.066736      62.909877    
Loop time of 2.33805 on 4 procs for 1000 steps with 3954 atoNeigh   | 0.026924   | 0.046335   | 0.064304   |   7.5 |  1.98
Comm    | 0.052766   | 0.38787    | 0.71588    |  52.4 | 16.59
Output  | 0.0002147  | 0.00028665 | 0.00044637 |   0.0 |  0.01
Modify  | 0.0041544  | 0.0051941  | 0.0062447  |   1.3 |  0.22
Other   |            | 0.009943   |            |       |  0.43

Nlocal:          988.5 ave        1154 max         776 min
Histogram: 1 0 1 0 0 0 0 0 0 2
Nghost:        3372.75 ave        4138 max        2348 min
Histogram: 1 0 0 0 1 0 0 1 0 1
Neighs:        90143.2 ave      123341 max       57817 min
Histogram: 2 0 0 0 0 0 0 0 0 2

Total # of neighbors = 360573
Ave neighs/atom = 91.191958
Neighbor list builds = 29
Dangerous builds = 0
=== Phase 1: 0K Relaxation ===
Switching to 'neigh_modify every 1 delay 0 check yes' setting during minimization
Setting up cg style minimization ...
  Unit style    : metal
  Current step  : 1000
WARNING: Energy due to 3 extra global DOFs will be included in minimizer energies
 (src/min.cpp:222)
Per MPI rank memory allocation (min/avg/max) = 4.607 | 4.834unfix shake
velocity all set 0 0 0

# x,y方向の箱寸法 + 原子位置を同時最適化（z方向はshrink-wrap）
print '=== Phase 1: 0K Relaxation ==='
=== Phase 1: 0K Relaxation ===
fix relax all box/relax x 0.0 y 0.0 vmax 0.001
minimize 1.0e-8 1.0e-10 10000 100000
Switching to 'neigh_modify every 1 delay 0 check yes' setting during minimization
WARNING: Energy due to 3 extra global DOFs will be included in minimizer energies
 (src/min.cpp:222)
Per MPI rank memory allocation (min/avg/max) = 4.607 | 4.834 | 5.063 Mbytes
   Step          Temp          PotEng         Press           Pxx            Pyy             Lx             Ly             Lz      
      1000   0             -13164.382     -1674.8737     -2382.2865      4502.409       28.758912      31.066736      63.130839    
      1100   0             -13227.367     -2922.8293     -540.86123     -121.82822      28.495811      31.167438      63.130839    
      1200   0             -13288.578     -3257.2733      94.48026      -425.37396      28.354097      31.115595      63.130839    
      1300   0             -13332.534     -5221.1514     -1441.7237     -2407.9968      28.28733       31.092791      63.130839    
      1400   0             -13355.321     -2501.1412      1416.5099      1370.0582      28.217228      31.009145      63.130839    
      1478   0             -13372.182     -3315.5572      878.25832      362.53645      28.186379      31.008891      63.130839    
Loop time of 1.44352 on 4 procs for 478 steps with 3954 atoms

104.1% CPU use with 4 MPI tasks x 1 OpenMP threads

Minimization stats:
  Stopping critPair    | 1.3886     | 1.3892     | 1.3897     |   0.0 | 96.23
Neigh   | 0          | 0          | 0          |   0.0 |  0.00
Comm    | 0.016677   | 0.016822   | 0.017064   |   0.1 |  1.17
Output  | 7.8953e-05 | 9.9711e-05 | 0.00015549 |   0.0 |  0.01
Modify  | 0          | 0          | 0          |   0.0 |  0.00
Other   |            | 0.03744    |            |       |  2.59

Nlocal:          988.5 ave        1153 max         779 min
Histogram: 1 0 1 0 0 0 0 0 0 2
Nghost:        3422.75 ave        4233 max        2354 min
Histogram: 1 0 0 0 1 0 0 0 1 1
Neighs:        90192.8 ave      122846 max       57452 min
Histogram: 2 0 0 0 0 0 0 0 0 2

Total # of neighbors = 360771
Ave neighs/atom = 91.242033
Neighbor list builds = 0
Dangerous builds = 0
=== Phase 2: Annealing at 600.0K for 10.0ps ===
Setting up Verlet run ...
  Unit style    : metal
  Current step  : 0
  Time step     : 0.002
Per MPI rank memory allocation (min/avg/max) = 3.482 | 3.709 | 3.938 Mbytes
   Step          Temp          PotEng         Press           Pxx            Pyy             Lx             Ly             Lz      
         0   600           -13372.182      2628.1192      6692.8512      6376.9425      28.186379      31.008891      62.913884    
       100   445.66831     -13238.7unfix relax

# 界面近傍の原子配置を緩和（ミスフィット軽減）
print '=== Phase 2: Annealing at 600.0K for 10.0ps ==='
=== Phase 2: Annealing at 600.0K for 10.0ps ===
reset_timestep 0
velocity all create 600.0 27153 dist gaussian
fix ann all npt temp 600.0 600.0 0.1 x 0.0 0.0 1.0 y 0.0 0.0 1.0
run 5000
Per MPI rank memory allocation (min/avg/max) = 3.482 | 3.709 | 3.938 Mbytes
   Step          Temp          PotEng         Press           Pxx            Pyy             Lx             Ly             Lz      
         0   600           -13372.182      2628.1192      6692.8512      6376.9425      28.186379      31.008891      62.913884    
       100   445.66831     -13238.775     -6888.1817     -4877.9379     -5484.5671      28.530546      31.373903      63.133775    
       200   529.63621     -13201.945      661.18252      1870.347       807.29714      28.575442      31.356376      63.104037    
       300   591.61509     -13160.903      1741.1467      2345.3846      1903.6157      28.735359      31.379381      62.735575    
       400   603.54762     -13137.096      67.419659     -1307.5076     -940.18187      28.953669      31.387862      63.017243    
       500   593.04081     -13149.808      1805.9367      125.02462      2643.7465      29.006319      31.301297      62.869427    
       600   586.50262     -13166.494      1517.6052      1309.9972      853.79857      28.900581      31.387095      62.954166    
       700   606.8525      -13170.066     -588.79394     -952.81164     -1909.1208      28.886598      31.501143      61.97974     
       800   610.74766     -13159.407      427.61806      466.17956      12.18874       28.878725      31.465389      62.591178    
       900   609.26884     -13164.456      121.76364     -152.508       -560.48455      28.977119      31.431056      62.542159    
      1000   591.62446     -13161.297      954.26276     -246.44158     -303.16478      29.037575      31.380551      62.881668    
      1100   592.7993      -13155.795      651.68781     -575.89604     -563.6818       29.040092      31.385378      62.438255    
      1200   601.78081     -13158.43       264.45812     -322.53866     -354.8491       28.996056      31.360741      62.688126    
      1300   596.16663     -13161.981      156.97576     -148.62855      746.28202      28.887109      31.386421      62.727553    
      1400   608.53885     -13164.518      487.58524      1194.1013      404.52726      28.732996      31.466201      62.678628    
      1500   594.82485     -13159.382     -2423.0385     -894.2355      -2549.1309      28.769632      31.509058      62.668633    
      1600   594.87531     -13154.872      750.3301       438.6364       2273.3697      28.78286       31.367432      63.382442    
      1700   608.20158     -13156.787     -152.90422      55.105365      377.06547      28.768274      31.410448      62.858554    
      1800   596.47221     -13163.405     -758.90365     -177.10659     -883.07723      28.755937      31.438599      63.094139    
      1900   591.21981     -13156.058      463.96359      1137.5388      1255.1027      28.768546      31.37052       63.444632    
      2000   610.43681     -13154.973     -2505.7435     -1923.0511     -709.19711      28.810073      31.405295      63.221038    
      2100   593.0658      -13160.161     -209.03307      962.90751      867.82193      28.687      2700   591.4737      -13163.187      1268.8693     -428.19442      2430.5098      29.028736      31.325844      61.869895    
      2800   613.49076     -13164.066      436.66966     -275.45378     -883.00991      28.995915      31.423368      62.414342    
      2900   599.71855     -13155.075      595.5873      -960.50062     -41.738249      29.010739      31.410271      62.282355    
      3000   594.237       -13165.567      1202.3996      383.38815      610.66938      29.000497      31.341991      62.543068    
      3100   594.73779     -13156.48       671.88257      680.45123     -300.63029      28.990476      31.375786      62.550468    
      3200   598.7745      -13156.269       2700   591.4737      -13163.187      1268.8693     -428.19442      2430.5098      29.028736      31.325844      61.869895    
      2800   613.49076     -13164.066      436.66966     -275.45378     -883.00991      28.995915      31.423368      62.414342    
      2900   599.71855     -13155.075      595.5873      -960.50062     -41.738249      29.010739      31.410271      62.282355    
      3000   594.237       -13165.567      1202.3996      383.38815      610.66938      29.000497      31.341991      62.543068    
      3100   594.73779     -13156.48       671.88257      680.45123     -300.63029      28.990476      31.375786      62.550468    
      3200   598.7745      -13156.269     -374.32454     -1283.0388     -81.585737      29.020084      31.321097      62.462129    
      3300   592.83103     -13168.185      597.13248     -29.56439       2048.7706      28.931172      31.281894      62.503073    
      3400   600.06991     -13163.851     -2252.1236     -155.8581      -3016.3415      28.749773      31.477381      62.728893    
      3500   605.48361     -13165.026     -618.83931      1299.464      -229.39036      28.701365      31.438053      62.828441    
      3600   601.0502      -13164.491     -843.55803     -833.81593      1962.584       28.814572      31.322907      62.842924    
      3700   603.78034     -13152.878     -423.8333       706.24045     -916.26065      28.812574      31.403902      63.356689    
      3800   596.31486     -13162.987      388.60849      1050.2598      345.70306      28.775135      31.387511      62.893242    
      3900   585.6049      -13160.584      0.3728446     -542.41717      1890.6668      28.849849      31.3306        62.703322    
      4000   599.02101     -13156.458      200.39847      931.16305      422.52354      28.817284      31.384867      62.952233    
      4100   587.98262     -13159.051     -291.96998      377.29535     -785.34715      28.783752      31.463376      62.737771    
      4200   593.04381     -13162.976      1820.002       2170.229       2101.3676      28.798986      31.40238       62.733155    
      4300   600.78322     -13157.056     -1527.9272     -2267.299      -1387.0309      28.93944       31.411796      63.057937    
      4400   605.10103     -13163.682      1099.2607     -619.1365       11.736476      28.912479      31.412527      63.351331    
      4500   596.61861     -13164.402      1263.7846      395.9987       608.55009      28.910083      31.414735      62.621894    
      4600   615.09508     -13160.383     -775.8795      -1395.6296     -1436.1959      28.950919      31.460332      62.520484    
      4700   609.03205     -13162.46       1074.2057      745.98568      1753.1545      28.855814      31.472138      62.404383    
      4800   606.47479     -13168.485      93.471466      1142.0765     -935.23413      28.7682        31.538605      62.622202    
      4900   612.84159     -13164.252     -431.05447     -317.40581     -250.93463      28.847024      31.4802Output  | 0.0011141  | 0.0014583  | 0.0024668  |   1.5 |  0.01
Modify  | 0.17416    | 0.24824    | 0.43933    |  22.2 |  1.98
Other   |            | 0.03508    |            |       |  0.28

Nlocal:          988.5 ave        1152 max         818 min
Histogram: 2 0 0 0 0 0 0 0 0 2
Nghost:        3429.25 ave        4236 max        2387 min
Histogram: 1 0 0 0 1 0 0 1 0 1
Neighs:        89580.8 ave      122319 max       53446 min
Histogram: 1 1 0 0 0 0 0 0 0 2

Total # of neighbors = 358323
Ave neighs/atom = 90.622914
Neighbor list builds = 157
Dangerous builds = 0
=== Phase 2b: Cooling 600.0K -> 300.0K ===
Setting up Verlet run ...
  Unit style    : metal
  Current step  : 5000
  Time step     : 0.002
Per MPI rank memory allocation (min/avg/max) = 3.482 | 3.709 | 3.938 Mbytes
   Step          Temp          PotEng         Press           Pxx            Pyy             Lx             Ly             Lz      
      5000   590.33445     -13163.796     -1706.2313     -1789.9575     -1947.8561      28.897984      31.439351      62.322861    
      5100   597.77048     -13163.501      2337.4851      2068.8409      2145.0165      28.831019      31.401232      62.7039      
      5200   585.9288      -13164.311      319.81964      16.183343     -532.94699    unfix ann

print '=== Phase 2b: Cooling 600.0K -> 300.0K ==='
=== Phase 2b: Cooling 600.0K -> 300.0K ===
fix cool all npt temp 600.0 300.0 0.1 x 0.0 0.0 1.0 y 0.0 0.0 1.0
run 5000
Per MPI rank memory allocation (min/avg/max) = 3.482 | 3.709 | 3.938 Mbytes
   Step          Temp          PotEng         Press           Pxx            Pyy             Lx             Ly             Lz      
      5000   590.33445     -13163.796     -1706.2313     -1789.9575     -1947.8561      28.897984      31.439351      62.322861    
      5100   597.77048     -13163.501      2337.4851      2068.8409      2145.0165      28.831019      31.401232      62.7039      
      5200   585.9288      -13164.311      319.81964      16.183343     -532.94699      28.883867      31.4213        62.526676    
      5300   585.42452     -13177.685     -2205.4546     -3021.5993     -801.52309      28.870218      31.377676      62.510774    
      5400   586.9957      -13180.944     -244.2942       1188.5598     -948.69642      28.704433      31.460425      62.771059    
      5500   567.14843     -13185.677     -2313.1275     -1030.5474     -2096.6519      28.70818       31.483373      62.602472    
      5600   565.66987     -13185.558      166.88151      1122.7431      1051.1992      28.679606      31.422505      62.586067    
      5700   567.46801     -13196.464     -947.23903     -196.64016     -1704.7101      28.721613      31.462228      62.598413    
      5800   549.55448     -13197.979     -63.174476     -661.98157      225.02486      28.810599      31.357325      62.585326    
      5900   556.07064     -13195.663     -798.60002     -1162.0631     -62.902606      28.837272      31.376881      62.648309    
      6000   547.21894     -13206.006     -678.4237      -1055.3249     -347.66098      28.758457      31.423131      62.555733    
      6100   527.01025     -13205.122     -1256.357      -811.39522     -1743.5531      28.741152      31.472755      62.249377    
      6200   521.18018     -13208.553      840.03455      327.98331      1113.1767      28.766713      31.424514      62.028393    
      6300   520.50654     -13215.991      32.458466      67.185338      63.11263       28.794846      31.398735      62.251198    
      6400   517.96781     -13217.038      1053.5767      622.48301      89.90056       28.846489      31.377922      62.355343    
      6500   508.98974     -13223.165      1443.2042      215.38173      1073.1185      28.894339      31.318347      61.782152    
      6600   503.44971     -13222.047      630.64117     -594.91483     -59.69992       28.871043      31.364718      62.132217    
      6700   500.13806     -13231.981      1618.1945      1595.7697      732.21102      28.758074      31.383494      61.689934    
      6800   489.39515     -13233.552     -1167.7493     -1204.6412     -1267.2314      28.755509      31.387873      62.205404    
      6900   479.14412     -13230.404      46.449284      315.2557       418.16526      28.70509       31.393197      62.168454    
      7000   485.68082     -13241.663     -47.793588      413.50026      274.43361      28.667506      31.394404      61.971391    
      7100   481.10668     -13244.231     -1019.3824     -797.31335     -739.09241      28.682888      31.377474      62.072684    
      7200   465.3649      -13244.944      112.27739        7800   431.55619     -13266.61      -398.01641     -1189.0826     -239.62363      28.798617      31.3038        61.589074    
      7900   425.51396     -13271.392     -92.66502      -1541.4187      899.66023      28.852801      31.26911       61.582986    
      8000   419.23995     -13273.84       1191.9417      1430.9144     -1002.5262      28.723228      31.393613      61.494705    
      8100   412.1655      -13278.554      1359.5797      741.69101      369.89194      28.760945      31.342761      61.345805    
      8200   416.18535     -13285.452     -359.60585     -1685.1069      133.58818      28.837052      31.291673      61.368313    
      8300   403.17187     -13287.11       161.64344      703.29645     -1225.5665      28 431.55619     -13266.61      -398.01641     -1189.0826     -239.62363      28.798617      31.3038        61.589074    
      7900   425.51396     -13271.392     -92.66502      -1541.4187      899.66023      28.852801      31.26911       61.582986    
      8000   419.23995     -13273.84       1191.9417      1430.9144     -1002.5262      28.723228      31.393613      61.494705    
      8100   412.1655      -13278.554      1359.5797      741.69101      369.89194      28.760945      31.342761      61.345805    
      8200   416.18535     -13285.452     -359.60585     -1685.1069      133.58818      28.837052      31.291673      61.368313    
      8300   403.17187     -13287.11       161.64344      703.29645     -1225.5665      28.768408      31.340934      61.271364    
      8400   400.38512     -13292.451      1437.1706      1114.2656      1067.6682      28.748848      31.294435      61.503614    
      8500   394.23552     -13294.598      139.92273     -580.2024       124.8124       28.805751      31.272954      61.330156    
      8600   379.05991     -13293.112      283.19519     -373.66173     -435.06247      28.757822      31.29233       61.481925    
      8700   388.93952     -13303.993      551.45854      1023.3592     -74.191213      28.677629      31.293949      61.489097    
      8800   374.9994      -13304.632     -311.52144     -475.41979      1160.8183      28.690448      31.247704      61.643708    
      8900   362.7245      -13304.762     -1750.5258     -607.45899     -1084.6125      28.636462      31.300812      61.639214    
      9000   359.22793     -13309.215      125.65921      1471.135      -677.85175      28.560724      31.332932      61.541048    
      9100   353.18502     -13311.891      173.38949      462.42769      799.37485      28.645917      31.254736      61.697303    
      9200   346.08311     -13315.505     -446.12177     -1261.9698      1016.905       28.704892      31.212538      61.61208     
      9300   342.68917     -13319.124     -873.61183     -253.9808      -2079.2831      28.631778      31.31993       61.488623    
      9400   341.899       -13325.039      141.54486      451.86663     -37.421343      28.630205      31.277647      61.399283    
      9500   335.59741     -13329.39      -548.72982     -943.48518      269.4185       28.704275      31.236724      61.33725     
      9600   326.54594     -13331.971      320.27507      249.131        561.50106      28.650908      31.260854      61.464995    
      9700   325.85507     -13338.137      129.58633      551.51985     -1358.8815      28.642265      31.311523      61.171161    
      9800   314.82089     -13339.507      122.25516     -813.55496     -16.369179      28.749604      31.236595      61.352675    
      9900   311.21533     -13343.761      1310.0037      734.93708      746.02504      28.722487      31.229304      60.910224    
     10000   302.09299     -13344.654      20.6          -280.84711     -1351.9883      28.689502      31.287126      61.15328 
Nlocal:          988.5 ave        1152 max         777 min
Histogram: 1 0 1 0 0 0 0 0 0 2
Nghost:        3516.25 ave        4335 max        2421 min
Histogram: 1 0 0 0 1 0 0 0 1 1
Neighs:          91734 ave      124765 max       58497 min
Histogram: 2 0 0 0 0 0 0 0 0 2

Total # of neighbors = 366936
Ave neighs/atom = 92.801214
Neighbor list builds = 122
Dangerous builds = 0
=== Phase 3: Define Grips ===
384 atoms in group bottom
330 atoms in group top
3240 atoms in group mobile
Bottom grip: 384 atoms
Top grip:    330 atoms
Mobile:      3240 atoms
=== Phase 4: Equilibration with Grips ===
Setting up Verlet run ...
  Unit style    : metal
  Current step  : 0
  Time step     : 0.002
Per MPI rank memory allocation (min/avg/max) = 3.482 | 3.709 | 3.938 Mbytes
   Step          Temp          PotEng         Press           Pxx            Pyy             Lx             Ly             Lz      
         0   245.49793     -13344.654     -543.00005     -815.48032     -1950.3695      28.689502      31.287126      61.052462    
       100   267.0054      -13333.208     -933.14765     -2014.8073     -1039.3683    unfix cool

# 焼きなまし後の座標を基準にグリップ領域を定義
print '=== Phase 3: Define Grips ==='
=== Phase 3: Define Grips ===
variable zmin equal bound(all,zmin)
variable zmax equal bound(all,zmax)
variable grip_thick equal 5.0
variable zlo_grip equal ${zmin}+${grip_thick}
variable zlo_grip equal 1.67188691096907+${grip_thick}
variable zlo_grip equal 1.67188691096907+5
variable zhi_grip equal ${zmax}-${grip_thick}
variable zhi_grip equal 62.7115074475893-${grip_thick}
variable zhi_grip equal 62.7115074475893-5

region rgn_bot block INF INF INF INF INF ${zlo_grip}
region rgn_bot block INF INF INF INF INF 6.67188691096907
region rgn_top block INF INF INF INF ${zhi_grip} INF
region rgn_top block INF INF INF INF 57.7115074475893 INF
group bottom region rgn_bot
384 atoms in group bottom
group top region rgn_top
330 atoms in group top
group mobile subtract all bottom top
3240 atoms in group mobile

print 'Bottom grip: $(count(bottom)) atoms'
Bottom grip: 384 atoms
print 'Top grip:    $(count(top)) atoms'
Top grip:    330 atoms
print 'Mobile:      $(count(mobile)) atoms'
Mobile:      3240 atoms

print '=== Phase 4: Equilibration with Grips ==='
=== Phase 4: Equilibration with Grips ===
reset_timestep 0
velocity bottom set 0.0 0.0 0.0
velocity top set 0.0 0.0 0.0
# グリップ: nve（時間積分）+ setforce 0（力ゼロ）→ 等速運動
fix nve_bot bottom nve
fix nve_top top nve
fix freeze_bot bottom setforce 0.0 0.0 0.0
fix freeze_top top setforce 0.0 0.0 0.0
fix eq mobile npt temp 300.0 300.0 0.1 x 0.0 0.0 1.0 y 0.0 0.0 1.0
run 5000
Per MPI rank memory allocation (min/avg/max) = 3.482 | 3.709 | 3.938 Mbytes
   Step          Temp          PotEng         Press           Pxx            Pyy             Lx             Ly             Lz      
         0   245.49793     -13344.654     -543.00005     -815.48032     -1950.3695      28.689502      31.287126      61.052462    
       100   267.0054      -13333.208     -933.14765     -2014.8073     -1039.3683      28.762506      3      1700   300.29806     -13317.654      359.89076      456.69288     -1083.539       28.729351      31.317691      61.052462    
      1800   303.96086     -13322.115      866.34043     -295.63108      95.815307      28.739662      31.282635      61.052462    
      1900   302.12067     -13317.124      813.47295     -234.00001      87.294013      28.767885      31.279121      61.052462    
      2000   298.03421     -13314.073      924.82489      2.1925417     -195.58065      28.748027      31.303257      61.052462    
      2100   296.04808     -13320.883      966.93669      122.83968      341.36791      28.740626      31.281526      61.052462    
      2200   300.04727     -13316.805      580.92314      62.456073     -690.59265      28.724191      31.316371      61.052462    
      2300   292.71479     -13313.632      31.56624      -821.93861     -756.95039      28.760687      31.303588      61.052462    
      2400   299.93514     -13321.371     -178.48999     -982.9465      -693.91299      28.755588      31.282853      61.052462    
      2500   292.58346     -13316.039      981.04594      319.83859      59.908788      28.692346      31.32567       61.052462    
      2600   301.72081     -13316.327      1239.6801      231.86666      947.20042      28.733658      31.277639      61.052462    
      2700   303.04785     -13320.82       936.26504      293.36691      441.30707      28.724904      31.289882      61.052462    
      2800   293.70269     -13321.595      1142.5298      493.71463      198.66283      28.702571      31.307689      61.052462    
      2900   297.96843     -13316.524      153.77049     -1350.9198     -82.386829      28.783289      31.269485      61.052462    
      3000   300.49999     -13316.535     -57.838686     -688.19692     -1781.5038      28.732123      31.345279      61.052462    
      3100   293.9477      -13319.304     -228.91951     -1604.9885     -958.52671      28.783117      31.281516      61.052462    
      3200   305.30432     -13318.473      205.16254     -248.60795     -1889.0041      2869288     -1083.539       28.729351      31.317691      61.052462    
      1800   303.96086     -13322.115      866.34043     -295.63108      95.815307      28.739662      31.282635      61.052462    
      1900   302.12067     -13317.124      813.47295     -234.00001      87.294013      28.767885      31.279121      61.052462    
      2000   298.03421     -13314.073      924.82489      2.1925417     -195.58065      28.748027      31.303257      61.052462    
      2100   296.04808     -13320.883      966.93669      122.83968      341.36791      28.740626      31.281526      61.052462    
      2200   300.04727     -13316.805      580.92314      62.456073     -690.59265      28.724191      31.316371      61.052462    
      2300   292.71479     -13313.632      31.56624      -821.93861     -756.95039      28.760687      31.303588      61.052462    
      2400   299.93514     -13321.371     -178.48999     -982.9465      -693.91299      28.755588      31.282853      61.052462    
      2500   292.58346     -13316.039      981.04594      319.83859      59.908788      28.692346      31.32567       61.052462    
      2600   301.72081     -13316.327      1239.6801      231.86666      947.20042      28.733658      31.277639      61.052462    
      2700   303.04785     -13320.82       936.26504      293.36691      441.30707      28.724904      31.289882      61.052462    
      2800   293.70269     -13321.595      1142.5298      493.71463      198.66283      28.702571      31.307689      61.052462    
      2900   297.96843     -13316.524      153.77049     -1350.9198     -82.386829      28.783289      31.269485      61.052462    
      3000   300.49999     -13316.535     -57.838686     -688.19692     -1781.5038      28.732123      31.345279      61.052462    
      3100   293.9477      -13319.304     -228.91951     -1604.9885     -958.52671      28.783117      31.281516      61.052462    
      3200   305.30432     -13318.473      205.16254     -248.60795     -1889.0041      28.685539      3      4800   306.05396     -13316.803     -227.12975     -1141.9507     -315.03117      28.763605      31.290331      61.052462    
      4900   306.16601     -13318.708      255.52121      439.81652     -1171.2362      28.718459      31.330707      61.052462    
      5000   297.49922     -13318.712      899.95166     -422.80625      1380.6133      28.776153      31.241347      61.052462    
Loop time of 12.6019 on 4 procs for 5000 steps with 3954 atoms

Performance: 68.561 ns/day, 0.350 hours/ns, 396.767 timesteps/s, 1.569 Matom-step/s
103.7% CPU use with 4 MPI tasks x 1 OpenMP threads

MPI task timing breakdown:
Section |  min time  |  avg time  |  max time  |%varavg| %total
---------------------------------------------------------------
Pair    | 8.7705     | 10.231     | 11.623     |  43.0 | 81.19
Neigh   | 0.072197   | 0.1091     | 0.14789    |  10.2 |  0.87
Comm    | 0.58128    | 1.8998     | 3.4872     |  96.2 | 15.08
Output  | 0.0012412  | 0.0016784  | 0.0029531  |   1.8 |  0.01
Modify  | 0.21241    | 0.31863    | 0.6062     |  29.4 |  2.53
Other   |            | 0.04138    |            |       |  0.33

Nlocal:          988.5 ave        1152 max         778 min
Histogram: 1 0 1 0 0 0 0 0 0 2
Nghost:           3509 ave        4344 max        2441 min
Histogram: 1 0 0 0 1 0 0 0 1 1
Neighs:        91471.5 ave      123797 max       58546 min
Histogram: 2 0 0 0 0 0 0 0 0 2

Total # of neighbors = 365886
Ave neighs/atom = 92.53566
Neighbor list builds = 64
Dangerous builds = 0
=== Phase 5: Tensile Test ===
Initial grip distance L0 = 56.377319333781 Ang
Pull velocity = 0.112754638667562 Ang/ps (erate=0.002/ps)
Setting up Verlet run ...
  Unit style    : metal
  Current step  : 0
  Time step     : 0.002
Per MPI rank memory allocation (min/avg/max) = 4.982 | 5.209 | 5.438 Mbytes
   Step          Temp         v_strain     v_stress_zz        Pxx            Pyy             Lx             Ly           v_Lmat    
         0   297.5107      -1.0082675e-15 -0.18868798    -422.80625      1380.6133      28.776153      31.241347      56.377319    
       100   269.33291      0.0004         0.011839173   -2084.7865     -770.06329      28.776153      31.241347      56.39987     
       200   249.58702      0.0008         0.22452412    -3970.8993     -2623.5228      28.776153      31.241347      56.422421    
       300   237.58556      0.0012         0.24344989    -4513.7291     -2890.0116      28.776153      31.241347      56.444972    
       400   248.70265      0.0016         0.22351142    -4136.389      -3067.3549      28.776153      31.241347      56.467523    
       500   248.33543      0.002          0.35608898    -5059.3544     -3372.7838      28.776153      31.241347      56.490074    
       600   243.73275      0.0024         0.43337217    -5854.163      -3914.7601      28.776153      31.241347      56.512625    
       700   248.64759      0.0028         0.52447651    -5484.84       -3899.0142      28.776153      31.241347      56.535176    
       800   245.86148      0.0032         0.55580016    -5839.801      -3599.3561      28.776153      31.241347      56.557727    
       900   244.67032      0.0036         0.70691989    -7416.4926     -4125.1949      28.776153      31.241347      56.580278    
      1000   247.71097      0.004          0.661326      -6732.2351     -4953.382       28.776153      31.241347      56.602829    
      1100   246.62832      0.0044         0.6292665     -6843.7194     -4410.9628      28.776153      31.241347      5unfix eq

print '=== Phase 5: Tensile Test ==='
=== Phase 5: Tensile Test ===
reset_timestep 0

# グリップ重心間距離で初期材料長を定義
variable zcm_bot equal xcm(bottom,z)
variable zcm_top equal xcm(top,z)
variable tmp_L equal v_zcm_top-v_zcm_bot
variable L0 equal ${tmp_L}
variable L0 equal 56.377319333781
print 'Initial grip distance L0 = ${L0} Ang'
Initial grip distance L0 = 56.377319333781 Ang

# 引っ張り速度 = erate × L0
variable vpull equal 0.002*v_L0
velocity top set 0.0 0.0 ${vpull}
velocity top set 0.0       1600   242.87903      0.0064         0.723792      -7423.6446     -5551.0373      28.776153      31.241347      56.738134    
      1700   250.93051      0.0068         0.90805317    -8781.7386     -6236.9596      28.776153      31.241347      56.760685    
      1800   244.33763      0.0072         0.97603555    -9665.6063     -5983.9143      28.776153      31.241347      56.783236    
      1900   245.34682      0.0076         1.0432711     -9407.4285     -6203.7908      28.776153      31.241347      56.805787    
      2000   244.78483      0.008          1.088881      -9384.4306     -6919.9195      28.776153      31.241347      56.828338    
      2100   244.27098      0.0084         1.1500078     -9803.2954     -7113.2629      28.776153      31.241347      56.850889    
      2200   250.60341      0.0088         1.10552       -10072.486     -7049.6538      28.776153      31.241347      56.87344     
      2300   244.44037      0.0092         1.0781644     -10113.285     -7256.6053      28.776153      31.241347      56.895991    
      2400   247.70365      0.0096         1.1889462     -10545.516     -7806.2921      28.776153      31.241347      56.918542    
      2500   245.64228      0.01           1.0597436     -10018.87      -7764.8853      28.776153      31.241347      56.941093    
      2600   246.58582      0.0104         1.1604022     -10962.021     -7606.7159      28.776153      31.241347      56.963643    
      2700   243.42679      0.0108         1.2503791     -10392.412     -7787.1584      28.776153      31.241347      56.986194    
      2800   240.17903      0.0112         1.2863754     -11417.449     -8780.2507      28.776153      31.241347      57.008745    
      2900   245.42627      0.0116         1.381673      -11611.489     -8353.4979      28.776153      31.241347      57.031296    
      3000   246.53353      0.012          1.4964567     -12179.203     -8645.5918      28.776153      31.241347      57.053847    
      3100   243.51011      0.0124         1.5527187     -12909.003     -9197.4315      28.776153      31.241347      57.076398    
      3200   245.97948      0.0128         1.5075154     -12776.037     -9262.6756      28.776153      31.241347      57.098949    
      3300   248.45148      0.0132         1.4856652     -12655.421     -9517.6989      28.776153      31.241347      57.1215      
      3400   239.99567      0.0136         1.5123976     -12846.992     -10041.652      28.776153      31.241347      57.144051    
      3500   247.20079      0.014          1.5814801     -13023.349     -9539.7831      28.776153      31.241347      57.166602    
      3600   253.31355      0.0144         1.5559236     -13029.589     -10050.685      28.776153      31.241347      57.189153    
      3700   240.67059      0.0148         1.5800523     -13281.358     -9833.4462      28.776153      31.241347      57.211704    
      3800   250.01228      0.0152         1.6857002     -13286.515     -9972.252       28.776153      31.241347      57.234255    
      3900   250.43849      0.0156         1.7288545     -14674.84      -10727.556      28.776153      31.241347      57.256806    
      4000   249.02083      0.016          1.8437726     -15406.364     -10779.186      28.776153      31.241347      57.279356    
      4100   247.83838      0.0164         1.8695593     -14591.019     -10789.266      28.776153      31.241347      57.301907    
      4200   245.94068      0.0168         1.9440008     -15180.188     -10814.904      28.776153      31.241347      57.3223792      -7423.6446     -5551.0373      28.776153      31.241347      56.738134    
      1700   250.93051      0.0068         0.90805317    -8781.7386     -6236.9596      28.776153      31.241347      56.760685    
      1800   244.33763      0.0072         0.97603555    -9665.6063     -5983.9143      28.776153      31.241347      56.783236    
      1900   245.34682      0.0076         1.0432711     -9407.4285     -6203.7908      28.776153      31.241347      56.805787    
      2000   244.78483      0.008          1.088881          4700   245.19996      0.0188         1.9964948     -15846.626     -12327.814      28.776153      31.241347      57.437213    
      4800   242.37097      0.0192         2.044819      -15570.034     -12262.351      28.776153      31.241347      57.459764    
      4900   242.38366      0.0196         2.0371557     -15752.563     -12178.396      28.776153      31.241347      57.482315    
      5000   244.52029      0.02           2.1399258     -16858.171     -12666.192      28.776153      31.241347      57.504866    
      5100   245.15246      0.0204         2.2178718     -17374.518     -13398.696      28.776153      31.241347      57.527417    
      5200   247.79213      0.0208         2.2930171     -17195.209     -12873.37       28.776153      31.241347      57.549968    
      5300   242.59833      0.0212         2.3431314     -17916.08      -13495.302      28.776153      31.241347      57.572519    
      5400   247.86437      0.0216         2.360788      -18045.481     -13811.154      28.776153      31.241347      57.595069    
      5500   244.67293      0.022          2.3508398     -17821.728     -13689.291      28.776153      31.241347      57.61762     
      5600   244.58341      0.0224         2.3987304     -17935.745     -14038.102      28.776153      31.241347      57.640171    
      5700   244.49834      0.0228         2.3886979     -18014.24      -13929.316      28.776153      31.241347      57.662722    
      5800   248.7683       0.0232         2.3616253     -18110.757     -14037.303      28.776153      31.241347      57.685273    
      5900   243.76199      0.0236         2.3806867     -18604.191     -14688.78       28.776153      31.241347      57.707824    
      6000   244.91084      0.024          2.429868      -18590.013     -14762.67       28.776153      31.241347      57.730375    
      6100   246.09706      0.0244         2.4513194     -18186.429     -14745.763      28.776153      31.241347      57.752926    
      6200   241.69871      0.0248         2.5574769     -19542.546     -14934.603      28.776153      31.241347      57.775477    
      6300   245.07427      0.0252         2.6523737     -20221.496     -15370.945      28.776153      31.241347      57.798028    
      6400   252.54816      0.0256         2.6741758     -20324.311     -15263.713      28.776153      31.241347      57.820579    
      6500   244.41186      0.026          2.8000321     -20470.956     -15117.98       28.776153      31.241347      57.84313     
      6600   242.01112      0.0264         2.8230041     -20934.532     -15912.607      28.776153      31.241347      57.865681    
      6700   251.6403       0.0268         2.7373937     -20970.382     -15929.997      28.776153      31.241347      57.888231    
      6800   242.71972      0.0272         2.7732411     -21141.614     -16383.743      28.776153      31.241347      57.910782    
      6900   243.97089      0.0276         2.8110147     -20951.978     -16978.969      28.776153      31.241347      57.933333    
      7000   246.70258      0.028          2.6946654     -20695.726     -16713.109      28.776153      31.241347      57.955884    
      7100   246.29497      0.0284         2.8337847     -21158.156     -17135.654      28.776153      31.241347      57.978435    
      7200   240.95487      0.0288         2.8034961     -21394.301     -17212.484      28.776153      31.241347      58.000986    
      7300   244.57862      0.0292         2.8802577     -21322.464     -16916.615      28.776153      31.241347      58.02353748     -15846.626     -12327.814      28.776153      31.241347      57.437213    
      4800   242.37097      0.0192         2.044819      -15570.034     -12262.351      28.776153      31.241347      57.459764    
      4900   242.38366      0.0196         2.0371557     -15752.563     -12178.396      28.776153      31.241347      57.482315    
      5000   244.52029      0.02           2.1399258     -16858.171     -12666.192      28.776153      31.241347      57.504866    
      5100   245.15246      0.0204         2.2178718         7800   244.45847      0.0312         3.1917048     -23471.121     -18157.476      28.776153      31.241347      58.136292    
      7900   239.88683      0.0316         3.1265724     -23425.649     -17913.165      28.776153      31.241347      58.158843    
      8000   248.99997      0.032          3.1143531     -23255.006     -18125.011      28.776153      31.241347      58.181394    
      8100   242.62373      0.0324         3.1802745     -24183.062     -18665.818      28.776153      31.241347      58.203944    
      8200   243.59105      0.0328         3.1196772     -23281.875     -18970.352      28.776153      31.241347      58.226495    
      8300   248.53776      0.0332         3.145103      -23709.127     -18563.659      28.776153      31.241347      58.249046    
      8400   244.23723      0.0336         3.1408337     -23234.855     -18941.353      28.776153      31.241347      58.271597    
      8500   245.40729      0.034          3.2146839     -23725.088     -19275.952      28.776153      31.241347      58.294148    
      8600   242.30918      0.0344         3.2714991     -24004.501     -19563.578      28.776153      31.241347      58.316699    
      8700   250.93589      0.0348         3.3054042     -24652.26      -19726.888      28.776153      31.241347      58.33925     
      8800   245.09898      0.0352         3.4386985     -25279.531     -20451.336      28.776153      31.241347      58.361801    
      8900   242.97586      0.0356         3.478084      -25516.393     -20119.997      28.776153      31.241347      58.384352    
      9000   246.79269      0.036          3.4951618     -25361.322     -20205.785      28.776153      31.241347      58.406903    
      9100   244.84846      0.0364         3.5126088     -25792.227     -20483.696      28.776153      31.241347      58.429454    
      9200   242.59664      0.0368         3.5059319     -25889.883     -20062.428      28.776153      31.241347      58.452005    
      9300   247.10137      0.0372         3.4423407     -25253.001     -20223.177      28.776153      31.241347      58.474556    
      9400   247.76903      0.0376         3.5172123     -26190.945     -20629.121      28.776153      31.241347      58.497107    
      9500   244.17616      0.038          3.5076644     -25391.948     -20756.891      28.776153      31.241347      58.519657    
      9600   250.7433       0.0384         3.5170301     -26081.929     -20756.589      28.776153      31.241347      58.542208    
      9700   242.62466      0.0388         3.56428       -26869.696     -21302.902      28.776153      31.241347      58.564759    
      9800   245.17283      0.0392         3.6047731     -26517.342     -21558.215      28.776153      31.241347      58.58731     
      9900   253.12874      0.0396         3.7312534     -27233.836     -21282.848      28.776153      31.241347      58.609861    
     10000   238.67718      0.04           3.8067406     -27722.84      -21842.749      28.776153      31.241347      58.632412    
     10100   243.9029       0.0404         3.8231698     -27899.455     -22062.654      28.776153      31.241347      58.654963    
     10200   248.36159      0.0408         3.8416559     -28134.344     -22239.361      28.776153      31.241347      58.677514    
     10300   241.31353      0.0412         3.9141444     -28322.338     -22862.585      28.776153      31.241347      58.700065    
     10400   244.4614       0.0416         3.9141938     -28618.876     -22822.605      28.776153      31.241347      58.722616       -23471.121     -18157.476      28.776153      31.241347      58.136292    
      7900   239.88683      0.0316         3.1265724     -23425.649     -17913.165      28.776153      31.241347      58.158843    
      8000   248.99997      0.032          3.1143531     -23255.006     -18125.011      28.776153      31.241347      58.181394    
      8100   242.62373      0.0324         3.1802745     -24183.062     -18665.818      28.776153      31.241347      58.203944    
      8200   243.59105      0.0328         3.1196772        10900   245.04138      0.0436         3.8579249     -29170.139     -23557.33       28.776153      31.241347      58.83537     
     11000   250.68017      0.044          3.9285833     -28916.569     -23725.976      28.776153      31.241347      58.857921    
     11100   247.61445      0.0444         3.8733305     -28569.039     -23688.325      28.776153      31.241347      58.880472    
     11200   240.30527      0.0448         4.0000035     -29879.195     -24171.913      28.776153      31.241347      58.903023    
     11300   246.59231      0.0452         4.1038626     -30169.362     -24129.196      28.776153      31.241347      58.925574    
     11400   253.05208      0.0456         4.0535561     -29870.476     -24483.288      28.776153      31.241347      58.948125    
     11500   247.27697      0.046          4.1100864     -30774.688     -24675.514      28.776153      31.241347      58.970676    
     11600   245.47544      0.0464         4.1337642     -30472.171     -24616.146      28.776153      31.241347      58.993227    
     11700   245.88338      0.0468         4.0710231     -30188.112     -24545.45       28.776153      31.241347      59.015778    
     11800   241.60281      0.0472         4.1650747     -31075.071     -24917.588      28.776153      31.241347      59.038329    
     11900   246.54458      0.0476         4.0748457     -29913.4       -24973.74       28.776153      31.241347      59.06088     
     12000   243.75753      0.048          4.0672364     -30970.465     -24787.744      28.776153      31.241347      59.083431    
     12100   250.0902       0.0484         4.1939258     -31406.824     -25692.261      28.776153      31.241347      59.105982    
     12200   252.46422      0.0488         4.2219437     -30998.008     -24953.234      28.776153      31.241347      59.128533    
     12300   246.8032       0.0492         4.2551573     -31428.99      -25464.17       28.776153      31.241347      59.151083    
     12400   243.55811      0.0496         4.2796042     -31942.718     -25742.336      28.776153      31.241347      59.173634    
     12500   249.16371      0.05           4.3392648     -32129.861     -25117.103      28.776153      31.241347      59.196185    
     12600   242.13945      0.0504         4.4464899     -32862.11      -25924.888      28.776153      31.241347      59.218736    
     12700   244.99075      0.0508         4.4226022     -32723.396     -26366.583      28.776153      31.241347      59.241287    
     12800   251.40847      0.0512         4.395779      -32199.096     -25978.344      28.776153      31.241347      59.263838    
     12900   244.25085      0.0516         4.4532717     -32304.953     -26955.247      28.776153      31.241347      59.286389    
     13000   243.82437      0.052          4.4678578     -33051.362     -26774.487      28.776153      31.241347      59.30894     
     13100   254.36725      0.0524         4.4479823     -32317.3       -26102.108      28.776153      31.241347      59.331491    
     13200   247.45904      0.0528         4.4454801     -32951.79      -26196.29       28.776153      31.241347      59.354042    
     13300   242.58744      0.0532         4.427273      -32896.882     -27110.41       28.776153      31.241347      59.376593    
     13400   250.12155      0.0536         4.5012247     -32848.175     -26752.155      28.776153      31.241347      59.399144    
     13500   244.64982      0.054          4.5230498     -33657.794     -27451.301      28.776153      31.241347      59.421695    
   29170.139     -23557.33       28.776153      31.241347      58.83537     
     11000   250.68017      0.044          3.9285833     -28916.569     -23725.976      28.776153      31.241347      58.857921    
     11100   247.61445      0.0444         3.8733305     -28569.039     -23688.325      28.776153      31.241347      58.880472    
     11200   240.30527      0.0448         4.0000035     -29879.195     -24171.913      28.776153      31.241347      58.903023    
     11300   246.59231      0.0452         4.1038626        14000   248.0238       0.056          4.8385319     -35273.311     -28802.028      28.776153      31.241347      59.534449    
     14100   246.22585      0.0564         4.7673088     -34621.864     -28011.298      28.776153      31.241347      59.557       
     14200   244.82154      0.0568         4.7118832     -34702.062     -27933.025      28.776153      31.241347      59.579551    
     14300   236.88427      0.0572         4.6668857     -34511.482     -28099.716      28.776153      31.241347      59.602102    
     14400   242.02792      0.0576         4.7628619     -34733.21      -28632.734      28.776153      31.241347      59.624653    
     14500   243.1446       0.058          4.7625504     -34950.111     -28818.125      28.776153      31.241347      59.647204    
     14600   250.79799      0.0584         4.6847322     -35172.533     -29340.845      28.776153      31.241347      59.669755    
     14700   243.15916      0.0588         4.6756587     -34358.117     -28489.802      28.776153      31.241347      59.692306    
     14800   251.36748      0.0592         4.7094935     -35165.863     -29352.028      28.776153      31.241347      59.714857    
     14900   243.43606      0.0596         4.7217504     -34848.938     -28683.828      28.776153      31.241347      59.737408    
     15000   243.37228      0.06           4.7501611     -35128.694     -29008.278      28.776153      31.241347      59.759958    
     15100   245.51425      0.0604         4.7774219     -34222.06      -29040.881      28.776153      31.241347      59.782509    
     15200   252.75145      0.0608         4.7236833     -34961.705     -28878.933      28.776153      31.241347      59.80506     
     15300   246.9415       0.0612         4.7772834     -35410.266     -29735.061      28.776153      31.241347      59.827611    
     15400   243.95335      0.0616         4.7862981     -35033.088     -29223.553      28.776153      31.241347      59.850162    
     15500   247.20738      0.062          4.7010061     -34198.694     -28776.795      28.776153      31.241347      59.872713    
     15600   243.18883      0.0624         4.6988389     -34591.892     -29030.201      28.776153      31.241347      59.895264    
     15700   239.35646      0.0628         4.6139273     -33718.547     -29156.65       28.776153      31.241347      59.917815    
     15800   244.2826       0.0632         4.6239025     -33833.371     -29520.652      28.776153      31.241347      59.940366    
     15900   251.99325      0.0636         4.5650617     -32931.189     -29570.226      28.776153      31.241347      59.962917    
     16000   243.06974      0.064          4.3812259     -31836.348     -28860.325      28.776153      31.241347      59.985468    
     16100   241.85679      0.0644         4.2859146     -30559.486     -28564.397      28.776153      31.241347      60.008019    
     16200   241.59217      0.0648         4.1862324     -30007.366     -28261.931      28.776153      31.241347      60.03057     
     16300   249.71994      0.0652         4.0283406     -28948.177     -27747.759      28.776153      31.241347      60.053121    
     16400   246.86919      0.0656         3.7993272     -27284.428     -27217.424      28.776153      31.241347      60.075671    
     16500   249.56135      0.066          3.625077      -26298.384     -26500.328      28.776153      31.241347      60.098222    
     16600   244.998        0.0664         3.4717601     -24622.152     -25982.892      28.776153      31.241347      60.120773    
     163.311     -28802.028      28.776153      31.241347      59.534449    
     14100   246.22585      0.0564         4.7673088     -34621.864     -28011.298      28.776153      31.241347      59.557       
     14200   244.82154      0.0568         4.7118832     -34702.062     -27933.025      28.776153      31.241347      59.579551    
     14300   236.88427      0.0572         4.6668857     -34511.482     -28099.716      28.776153      31.241347      59.602102    
     14400   242.02792      0.0576         4.7628619        17100   244.51174      0.0684         2.8609011     -21771.6       -23193.514      28.776153      31.241347      60.233528    
     17200   253.09694      0.0688         2.7927695     -20905.78      -22382.402      28.776153      31.241347      60.256079    
     17300   246.7472       0.0692         2.7009403     -20375.103     -21800.249      28.776153      31.241347      60.27863     
     17400   244.36017      0.0696         2.7244708     -20265.664     -22139.082      28.776153      31.241347      60.301181    
     17500   242.74193      0.07           2.670243      -19565.959     -21502.96       28.776153      31.241347      60.323732    
     17600   239.37068      0.0704         2.6674379     -19982.737     -21878.264      28.776153      31.241347      60.346283    
     17700   248.06165      0.0708         2.5025244     -18963.277     -20898.717      28.776153      31.241347      60.368834    
     17800   246.88783      0.0712         2.493712      -19201.042     -21249.277      28.776153      31.241347      60.391384    
     17900   239.9569       0.0716         2.4303709     -18787.273     -20982.067      28.776153      31.241347      60.413935    
     18000   246.94124      0.072          2.3673042     -18166.435     -20790.415      28.776153      31.241347      60.436486    
     18100   247.58268      0.0724         2.3015622     -17301.737     -20525.113      28.776153      31.241347      60.459037    
     18200   243.84323      0.0728         2.2576174     -17777.632     -20650.688      28.776153      31.241347      60.481588    
     18300   249.21655      0.0732         2.2105475     -17297.89      -19767.068      28.776153      31.241347      60.504139    
     18400   247.51268      0.0736         2.2599702     -17609.627     -20185.91       28.776153      31.241347      60.52669     
     18500   238.23825      0.074          2.2294244     -17606.786     -19814.1        28.776153      31.241347      60.549241    
     18600   247.99534      0.0744         2.1923999     -17249.899     -20199.535      28.776153      31.241347      60.571792    
     18700   243.12883      0.0748         2.3465063     -17704.765     -20624.125      28.776153      31.241347      60.594343    
     18800   251.90708      0.0752         2.2528956     -17493.858     -19735.781      28.776153      31.241347      60.616894    
     18900   244.40799      0.0756         2.3062717     -17286.692     -20433.197      28.776153      31.241347      60.639445    
     19000   243.17647      0.076          2.2735847     -17044.063     -19618.941      28.776153      31.241347      60.661996    
     19100   245.3633       0.0764         2.1347748     -16542.743     -18684.784      28.776153      31.241347      60.684547    
     19200   247.90594      0.0768         2.1019275     -16259.919     -19741.27       28.776153      31.241347      60.707097    
     19300   242.72589      0.0772         2.0250649     -15673.412     -18575.159      28.776153      31.241347      60.729648    
     19400   242.88923      0.0776         1.9330796     -15028.817     -18242.171      28.776153      31.241347      60.752199    
     19500   242.01965      0.078          1.8027469     -14794.329     -18285.988      28.776153      31.241347      60.77475     
     19600   243.076        0.0784         1.8858748     -15169.691     -17959.925      28.776153      31.241347      60.797301    
     19700   246.20402      0.0788         1.8926464     -15258.257     -17175.674      28.776153      31.241347      60.819852    
     19800       -23193.514      28.776153      31.241347      60.233528    
     17200   253.09694      0.0688         2.7927695     -20905.78      -22382.402      28.776153      31.241347      60.256079    
     17300   246.7472       0.0692         2.7009403     -20375.103     -21800.249      28.776153      31.241347      60.27863     
     17400   244.36017      0.0696         2.7244708     -20265.664     -22139.082      28.776153      31.241347      60.301181    
     17500   242.74193      0.07           2.670243         20200   246.41317      0.0808         1.5594225     -13090.009     -15479.083      28.776153      31.241347      60.932607    
     20300   250.24242      0.0812         1.4134463     -11541.443     -15413.051      28.776153      31.241347      60.955158    
     20400   241.78784      0.0816         1.2707119     -10959.283     -14552.441      28.776153      31.241347      60.977709    
     20500   241.39297      0.082          1.2635764     -11435.972     -14877.259      28.776153      31.241347      61.00026     
     20600   246.12329      0.0824         1.2901955     -11568.614     -15413.843      28.776153      31.241347      61.02281     
     20700   249.20102      0.0828         1.3136922     -11268.264     -14715.121      28.776153      31.241347      61.045361    
     20800   239.97494      0.0832         1.3944775     -11969.273     -15721.495      28.776153      31.241347      61.067912    
     20900   248.00201      0.0836         1.3832229     -11496.298     -14372.357      28.776153      31.241347      61.090463    
     21000   244.92964      0.084          1.566858      -12400.479     -14597.696      28.776153      31.241347      61.113014    
     21100   240.10287      0.0844         1.5128097     -12284.049     -14160.69       28.776153      31.241347      61.135565    
     21200   246.8463       0.0848         1.5891471     -12415.438     -14429.214      28.776153      31.241347      61.158116    
     21300   249.12653      0.0852         1.5358301     -12362.072     -14543.354      28.776153      31.241347      61.180667    
     21400   248.18653      0.0856         1.5145052     -11981.037     -15025.859      28.776153      31.241347      61.203218    
     21500   247.50988      0.086          1.3281562     -11283.392     -14115.121      28.776153      31.241347      61.225769    
     21600   251.04727      0.0864         1.2283077     -10656.035     -13146.958      28.776153      31.241347      61.24832     
     21700   249.64372      0.0868         1.3283134     -10967.613     -13420.677      28.776153      31.241347      61.270871    
     21800   244.65975      0.0872         1.1551052     -10071.033     -13161.813      28.776153      31.241347      61.293422    
     21900   247.77034      0.0876         1.0808383     -9828.4783     -13055.375      28.776153      31.241347      61.315973    
     22000   246.98906      0.088          1.2351763     -10479.435     -12948.937      28.776153      31.241347      61.338523    
     22100   244.54126      0.0884         1.211932      -10334.367     -13416.779      28.776153      31.241347      61.361074    
     22200   252.56197      0.0888         1.2889982     -10542.601     -13213.959      28.776153      31.241347      61.383625    
     22300   241.30953      0.0892         1.2795336     -10771.446     -13157.192      28.776153      31.241347      61.406176    
     22400   244.3433       0.0896         1.3057158     -10708.999     -13347.053      28.776153      31.241347      61.428727    
     22500   249.28553      0.09           1.3042849     -10707.72      -12745.196      28.776153      31.241347      61.451278    
     22600   242.4166       0.0904         1.3152134     -10865.82      -13875.695      28.776153      31.241347      61.473829    
     22700   245.42614      0.0908         1.2689077     -9973.2651     -12397.667      28.776153      31.241347      61.49638     
     22800   252.59079      0.0912         1.1709368     -9908.5362     -12399.382      28.776153      31.241347      61.518931    
     22900   24  -15479.083      28.776153      31.241347      60.932607    
     20300   250.24242      0.0812         1.4134463     -11541.443     -15413.051      28.776153      31.241347      60.955158    
     20400   241.78784      0.0816         1.2707119     -10959.283     -14552.441      28.776153      31.241347      60.977709    
     20500   241.39297      0.082          1.2635764     -11435.972     -14877.259      28.776153      31.241347      61.00026     
     20600   246.12329      0.0824         1.2901955        23300   244.66386      0.0932         1.2125702     -10212.378     -12158.981      28.776153      31.241347      61.631685    
     23400   244.59523      0.0936         1.2498058     -10623.114     -12023.009      28.776153      31.241347      61.654236    
     23500   243.42637      0.094          1.2778346     -10191.884     -12713.673      28.776153      31.241347      61.676787    
     23600   248.96547      0.0944         1.3652024     -11054.637     -12801.92       28.776153      31.241347      61.699338    
     23700   244.37495      0.0948         1.2778147     -10567.408     -11860.912      28.776153      31.241347      61.721889    
     23800   242.20964      0.0952         1.3330371     -11290.691     -13509.419      28.776153      31.241347      61.74444     
     23900   244.16779      0.0956         1.1786273     -10350.288     -11905.487      28.776153      31.241347      61.766991    
     24000   243.42113      0.096          1.161907      -9355.1156     -11344.873      28.776153      31.241347      61.789542    
     24100   246.78273      0.0964         1.1785891     -10404.861     -11903.497      28.776153      31.241347      61.812093    
     24200   243.82554      0.0968         1.1078965     -9441.7364     -11663.386      28.776153      31.241347      61.834644    
     24300   243.8975       0.0972         0.99571759    -8669.5296     -10802.213      28.776153      31.241347      61.857195    
     24400   245.4281       0.0976         1.1277902     -9726.9825     -11318.597      28.776153      31.241347      61.879746    
     24500   237.05319      0.098          1.1584784     -10389.309     -11329.398      28.776153      31.241347      61.902297    
     24600   244.63707      0.0984         1.214506      -10214.333     -12048.704      28.776153      31.241347      61.924848    
     24700   252.32483      0.0988         1.2110045     -10368.242     -11985.529      28.776153      31.241347      61.947398    
     24800   244.33338      0.0992         1.3709505     -11272.496     -12436.789      28.776153      31.241347      61.969949    
     24900   248.9334       0.0996         1.3489483     -11630.011     -12146.349      28.776153      31.241347      61.9925      
     25000   247.33682      0.1            1.2924327     -10403.667     -11711.021      28.776153      31.241347      62.015051    
     25100   246.4832       0.1004         1.2350103     -10345.564     -12394.088      28.776153      31.241347      62.037602    
     25200   245.99227      0.1008         1.2312482     -10921.73      -12174.858      28.776153      31.241347      62.060153    
     25300   249.35674      0.1012         1.0736204     -9338.354      -11763.01       28.776153      31.241347      62.082704    
     25400   246.77434      0.1016         1.123041      -10290.488     -12402.238      28.776153      31.241347      62.105255    
     25500   243.30362      0.102          1.0765662     -9549.2301     -12266.565      28.776153      31.241347      62.127806    
     25600   244.92819      0.1024         0.99100527    -9047.1395     -11870.869      28.776153      31.241347      62.150357    
     25700   241.95126      0.1028         1.0128925     -9424.252      -11948.591      28.776153      31.241347      62.172908    
     25800   250.51437      0.1032         1.0286185     -9064.9343     -11846.802      28.776153      31.241347      62.195459    
     25900   244.06468      0.1036         1.0999212     -9585.0002     -12732.703      28.776153      31.241347      62.21801     
     26000   245.052158.981      28.776153      31.241347      61.631685    
     23400   244.59523      0.0936         1.2498058     -10623.114     -12023.009      28.776153      31.241347      61.654236    
     23500   243.42637      0.094          1.2778346     -10191.884     -12713.673      28.776153      31.241347      61.676787    
     23600   248.96547      0.0944         1.3652024     -11054.637     -12801.92       28.776153      31.241347      61.699338    
     23700   244.37495      0.0948         1.2778147        26400   243.85344      0.1056         0.87966923    -8380.4193     -11195.605      28.776153      31.241347      62.330764    
     26500   250.86397      0.106          0.80974944    -7716.8869     -10470.811      28.776153      31.241347      62.353315    
     26600   248.60734      0.1064         0.81496106    -7215.9579     -10345.854      28.776153      31.241347      62.375866    
     26700   245.59492      0.1068         0.78411699    -7731.7896     -10358.454      28.776153      31.241347      62.398417    
     26800   246.74229      0.1072         0.81693622    -7282.9186     -9944.2487      28.776153      31.241347      62.420968    
     26900   247.36139      0.1076         0.79132915    -8012.829      -9829.3074      28.776153      31.241347      62.443519    
     27000   239.96807      0.108          0.90778608    -7618.2985     -9818.5346      28.776153      31.241347      62.46607     
     27100   253.12133      0.1084         0.83692308    -8157.021      -11004.44       28.776153      31.241347      62.488621    
     27200   243.15913      0.1088         1.0060961     -8716.6175     -11052.067      28.776153      31.241347      62.511172    
     27300   239.02619      0.1092         0.94148202    -8950.6576     -10794.744      28.776153      31.241347      62.533723    
     27400   247.41471      0.1096         0.87290333    -7853.071      -10248.73       28.776153      31.241347      62.556274    
     27500   246.42414      0.11           0.82289744    -7959.2641     -10120.828      28.776153      31.241347      62.578824    
     27600   244.36509      0.1104         0.78817355    -7378.8741     -10022.178      28.776153      31.241347      62.601375    
     27700   241.75779      0.1108         0.71584515    -7618.117      -10462.888      28.776153      31.241347      62.623926    
     27800   251.33507      0.1112         0.7845314     -7590.5408     -10795.93       28.776153      31.241347      62.646477    
     27900   241.27509      0.1116         0.7782743     -7769.8178     -10680.463      28.776153      31.241347      62.669028    
     28000   243.86143      0.112          0.76486497    -7223.3125     -10026.547      28.776153      31.241347      62.691579    
     28100   242.42121      0.1124         0.71057236    -7293.24       -10667.368      28.776153      31.241347      62.71413     
     28200   247.43096      0.1128         0.88726643    -8149.9035     -10978.073      28.776153      31.241347      62.736681    
     28300   239.95468      0.1132         1.0059462     -9102.3776     -11101.113      28.776153      31.241347      62.759232    
     28400   249.67984      0.1136         0.90127298    -7677.0626     -10325.42       28.776153      31.241347      62.781783    
     28500   242.80289      0.114          0.96428687    -8342.0381     -10669.066      28.776153      31.241347      62.804334    
     28600   243.3962       0.1144         0.93539811    -8396.4636     -10582.478      28.776153      31.241347      62.826885    
     28700   249.55708      0.1148         0.83850806    -8227.1196     -10229.857      28.776153      31.241347      62.849436    
     28800   248.50057      0.1152         0.70446968    -7214.231      -9470.0959      28.776153      31.241347      62.871987    
     28900   241.13129      0.1156         0.63169159    -7013.1424     -9351.9039      28.776153      31.241347      62.894537    
     29000   249.25299      0.116          0.73012359    -7867.6882     -9607.2839      28.776153      31.241347      62.917088    
     29100   246.73358 .605      28.776153      31.241347      62.330764    
     26500   250.86397      0.106          0.80974944    -7716.8869     -10470.811      28.776153      31.241347      62.353315    
     26600   248.60734      0.1064         0.81496106    -7215.9579     -10345.854      28.776153      31.241347      62.375866    
     26700   245.59492      0.1068         0.78411699    -7731.7896     -10358.454      28.776153      31.241347      62.398417    
     26800   246.74229      0.1072         0.81693622       29500   243.09124      0.118          0.93492056    -8672.4044     -10599.646      28.776153      31.241347      63.029843    
     29600   247.46521      0.1184         0.77497919    -7002.429      -10208.206      28.776153      31.241347      63.052394    
     29700   239.37306      0.1188         0.69638654    -7061.2922     -10057.185      28.776153      31.241347      63.074945    
     29800   251.77453      0.1192         0.67425216    -7239.4197     -10159.299      28.776153      31.241347      63.097496    
     29900   247.97808      0.1196         0.76626246    -7795.0507     -10636.456      28.776153      31.241347      63.120047    
     30000   253.26935      0.12           0.7480671     -7431.3208     -10155.792      28.776153      31.241347      63.142598    
     30100   240.86821      0.1204         0.67241059    -7003.9315     -10514.222      28.776153      31.241347      63.165149    
     30200   245.0344       0.1208         0.69143644    -7298.4769     -9852.3301      28.776153      31.241347      63.1877      
     30300   242.51665      0.1212         0.72512911    -7566.9397     -10209.212      28.776153      31.241347      63.21025     
     30400   245.99612      0.1216         0.708586      -7372.528      -10288.587      28.776153      31.241347      63.232801    
     30500   243.23261      0.122          0.69172422    -6749.0065     -10207.261      28.776153      31.241347      63.255352    
     30600   248.81418      0.1224         0.79699456    -8097.3124     -10526.869      28.776153      31.241347      63.277903    
     30700   253.50065      0.1228         0.8295825     -8175.3559     -9964.4114      28.776153      31.241347      63.300454    
     30800   242.35898      0.1232         0.84617046    -8047.2321     -9929.0428      28.776153      31.241347      63.323005    
     30900   246.82796      0.1236         0.70250818    -6970.2219     -9424.7691      28.776153      31.241347      63.345556    
     31000   238.87511      0.124          0.85656397    -7946.4442     -9953.6793      28.776153      31.241347      63.368107    
     31100   249.61718      0.1244         0.72226554    -7363.2054     -8837.0592      28.776153      31.241347      63.390658    
     31200   246.54187      0.1248         0.71625243    -6783.5326     -8682.3099      28.776153      31.241347      63.413209    
     31300   241.45319      0.1252         0.68113439    -7153.5801     -8797.4834      28.776153      31.241347      63.43576     
     31400   247.25394      0.1256         0.59553167    -6888.0288     -8105.1799      28.776153      31.241347      63.458311    
     31500   238.12878      0.126          0.70566082    -6596.998      -7800.0623      28.776153      31.241347      63.480862    
     31600   241.45867      0.1264         0.70304907    -6912.6523     -7705.6371      28.776153      31.241347      63.503412    
     31700   245.63071      0.1268         0.69014851    -6054.8496     -7374.7525      28.776153      31.241347      63.525963    
     31800   254.11974      0.1272         0.65429293    -6916.5428     -7594.2305      28.776153      31.241347      63.548514    
     31900   247.78238      0.1276         0.90786383    -7765.3007     -8469.3032      28.776153      31.241347      63.571065    
     32000   238.20711      0.128          0.87024488    -7825.5986     -9299.0363      28.776153      31.241347      63.593616    
     32100   246.46447      0.1284         0.72317044    -6818.5895     -7657.4596      28.776153      31.241347      63.616167    
     32200   244.44326           28.776153      31.241347      63.029843    
     29600   247.46521      0.1184         0.77497919    -7002.429      -10208.206      28.776153      31.241347      63.052394    
     29700   239.37306      0.1188         0.69638654    -7061.2922     -10057.185      28.776153      31.241347      63.074945    
     29800   251.77453      0.1192         0.67425216    -7239.4197     -10159.299      28.776153      31.241347      63.097496    
     29900   247.97808      0.1196         0.76626246       32600   242.43164      0.1304         0.44178348    -5133.3556     -6989.938       28.776153      31.241347      63.728922    
     32700   250.57893      0.1308         0.63153714    -5853.833      -7381.4916      28.776153      31.241347      63.751473    
     32800   242.60799      0.1312         0.76253921    -6956.4529     -8368.7422      28.776153      31.241347      63.774024    
     32900   244.4609       0.1316         0.74296719    -7171.802      -7780.2747      28.776153      31.241347      63.796575    
     33000   245.96984      0.132          0.67074869    -6478.0293     -7599.742       28.776153      31.241347      63.819125    
     33100   243.89973      0.1324         0.75092214    -6874.2377     -7836.9581      28.776153      31.241347      63.841676    
     33200   241.67174      0.1328         0.77592683    -7481.4489     -8145.0407      28.776153      31.241347      63.864227    
     33300   245.18137      0.1332         0.7529922     -6840.5068     -7559.4255      28.776153      31.241347      63.886778    
     33400   248.63145      0.1336         0.70109054    -6750.5748     -7602.6632      28.776153      31.241347      63.909329    
     33500   241.69106      0.134          0.76659205    -7409.0054     -8509.8268      28.776153      31.241347      63.93188     
     33600   242.86723      0.1344         0.77549883    -6913.9706     -8322.4354      28.776153      31.241347      63.954431    
     33700   248.67532      0.1348         0.61421331    -6318.2005     -7658.2018      28.776153      31.241347      63.976982    
     33800   238.74225      0.1352         0.55049991    -5677.1522     -6808.504       28.776153      31.241347      63.999533    
     33900   246.11922      0.1356         0.5149171     -6127.5566     -6660.1871      28.776153      31.241347      64.022084    
     34000   250.88336      0.136          0.59565671    -5635.4218     -6607.0831      28.776153      31.241347      64.044635    
     34100   243.75228      0.1364         0.62630598    -6639.6571     -7898.7494      28.776153      31.241347      64.067186    
     34200   245.3828       0.1368         0.69073803    -6465.9443     -7324.1358      28.776153      31.241347      64.089737    
     34300   243.41587      0.1372         0.68897934    -6862.7368     -7728.5654      28.776153      31.241347      64.112288    
     34400   248.5055       0.1376         0.7190466     -6723.5518     -7370.4068      28.776153      31.241347      64.134838    
     34500   248.03448      0.138          0.68096794    -6794.8928     -7612.4044      28.776153      31.241347      64.157389    
     34600   240.84447      0.1384         0.65363648    -6445.5073     -7466.6238      28.776153      31.241347      64.17994     
     34700   251.43639      0.1388         0.65664203    -6674.4628     -7525.2168      28.776153      31.241347      64.202491    
     34800   248.94978      0.1392         0.65259846    -6164.3306     -6981.4276      28.776153      31.241347      64.225042    
     34900   249.87397      0.1396         0.60253706    -6335.2094     -7332.9145      28.776153      31.241347      64.247593    
     35000   248.09191      0.14           0.5105284     -5705.5945     -6744.7634      28.776153      31.241347      64.270144    
     35100   246.97072      0.1404         0.48147336    -5634.4276     -6503.2772      28.776153      31.241347      64.292695    
     35200   247.58002      0.1408         0.52955427    -5705.9473     -7716.7975      28.776153      31.241347      64.315246    
     35300   242.99042      0.1  28.776153      31.241347      63.728922    
     32700   250.57893      0.1308         0.63153714    -5853.833      -7381.4916      28.776153      31.241347      63.751473    
     32800   242.60799      0.1312         0.76253921    -6956.4529     -8368.7422      28.776153      31.241347      63.774024    
     32900   244.4609       0.1316         0.74296719    -7171.802      -7780.2747      28.776153      31.241347      63.796575    
     33000   245.96984      0.132          0.67074869       35700   244.61984      0.1428         0.6247244     -6508.2652     -7475.5937      28.776153      31.241347      64.428001    
     35800   245.47577      0.1432         0.61694038    -6004.9692     -6056.2086      28.776153      31.241347      64.450551    
     35900   245.68884      0.1436         0.59554075    -6342.5916     -7093.5361      28.776153      31.241347      64.473102    
     36000   245.80106      0.144          0.69042049    -6240.0277     -6781.7793      28.776153      31.241347      64.495653    
     36100   250.83365      0.1444         0.45866957    -5226.5535     -6291.3783      28.776153      31.241347      64.518204    
     36200   253.99242      0.1448         0.46486695    -4671.7298     -5479.7904      28.776153      31.241347      64.540755    
     36300   245.65873      0.1452         0.45714659    -4826.9693     -5577.6739      28.776153      31.241347      64.563306    
     36400   243.30605      0.1456         0.44921031    -5155.8037     -6055.4183      28.776153      31.241347      64.585857    
     36500   246.87693      0.146          0.48627548    -5294.4044     -5895.8097      28.776153      31.241347      64.608408    
     36600   241.74823      0.1464         0.48705761    -4835.799      -6230.5082      28.776153      31.241347      64.630959    
[...]
     37500   249.62663      0.15           0.39757602    -4882.4136     -5927.9277      28.776153      31.241347      64.833917    
     37600   240.64188      0.1504         0.46174767    -5368.1464     -6410.3279      28.776153      31.241347      64.856468    
     37700   245.69326      0.1508         0.52923322    -6067.5737     -7104.0532      28.776153      31.241347      64.879019    
     37800   248.70396      0.1512         0.54815142    -5307.0515     -6495.3481      28.776153      31.241347      64.90157     
     37900   249.69099      0.1516         0.47462119    -4952.1583     -5782.8783      28.776153      31.241347      64.924121    
     38000   246.98619      0.152          0.66080367    -6537.6274     -7365.5116      28.776153      31.241347      64.946672    
     38100   244.13497      0.1524         0.59414386    -5829.1542     -6673.6824      28.776153      31.241347      64.969223    
     38200   250.8393       0.1528         0.49852323    -5285.152      -5915.1827      28.776153      31.241347      64.991774    
     38300   248.66082      0.1532         0.5489301     -5669.1145     -6986.2048      28.776153      31.241347      65.014325    
     38400   240.98881      0.1536 .776153      31.241347      64.428001    
     35800   245.47577      0.1432         0.61694038    -6004.9692     -6056.2086      28.776153      31.241347      64.450551    
     35900   245.68884      0.1436         0.59554075    -6342.5916     -7093.5361      28.776153      31.241347      64.473102    
     36000   245.80106      0.144          0.69042049    -6240.0277     -6781.7793      28.776153      31.241347      64.495653    
     36100   250.83365      0.1444         0.45866957       38800   244.95374      0.1552         0.47000668    -5675.2031     -6436.4331      28.776153      31.241347      65.127079    
     38900   245.84187      0.1556         0.4158073     -5093.109      -6230.7685      28.776153      31.241347      65.14963     
     39000   246.74544      0.156          0.46014099    -5211.9764     -6364.8592      28.776153      31.241347      65.172181    
     39100   248.57503      0.1564         0.4923819     -5106.8772     -6288.4285      28.776153      31.241347      65.194732    
     39200   248.20292      0.1568         0.64043579    -6209.5069     -6981.9474      28.776153      31.241347      65.217283    
     39300   243.35034      0.1572         0.62769963    -6229.7427     -6428.3969      28.776153      31.241347      65.239834    
     39400   247.79437      0.1576         0.63484128    -6131.7882     -7020.2893      28.776153      31.241347      65.262385    
     39500   249.42545      0.158          0.52849077    -5480.5127     -6663.4172      28.776153      31.241347      65.284936    
     39600   246.73315      0.1584         0.53599973    -6000.5123     -6375.0164      28.776153      31.241347      65.307487    
     39700   240.72782      0.1588         0.49866877    -5846.2023     -6885.4609      28.776153      31.241347      65.330038    
     39800   249.21109      0.1592         0.40436413    -5324.3815     -6397.5281      28.776153      31.241347      65.352589    
     39900   244.52067      0.1596         0.39618831    -4886.9374     -6477.7698      28.776153      31.241347      65.375139    
     40000   244.98698      0.16           0.34854048    -4493.277      -6029.4584      28.776153      31.241347      65.39769     
     40100   248.38971      0.1604         0.42112552    -5207.878      -6471.3198      28.776153      31.241347      65.420241    
     40200   244.3445       0.1608         0.42140534    -4817.2917     -6006.7376      28.776153      31.241347      65.442792    
     40300   249.21314      0.1612         0.43923841    -4975.3677     -6107.5244      28.776153      31.241347      65.465343    
     40400   244.51504      0.1616         0.42663012    -4918.5197     -6036.0424      28.776153      31.241347      65.487894    
     40500   243.83179      0.162          0.46853737    -5254.1773     -6523.7933      28.776153      31.241347      65.510445    
     40600   245.77934      0.1624         0.39853836    -4776.3388     -5864.7425      28.776153      31.241347      65.532996    
     40700   240.6973       0.1628         0.43499506    -4833.5709     -5855.0252      28.776153      31.241347      65.555547    
     40800   244.45589      0.1632         0.35612903    -4340.2188     -6058.7851      28.776153      31.241347      65.578098    
     40900   243.93978      0.1636         0.35770213    -4599.7341     -5990.5665      28.776153      31.241347      65.600649    
     41000   246.28142      0.164          0.32327307    -4302.7396     -5846.4008      28.776153      31.241347      65.6232      
     41100   242.54907      0.1644         0.36058658    -4317.95       -6092.7755      28.776153      31.241347      65.645751    
     41200   244.98168      0.1648         0.2770008     -4660.0785     -5478.9079      28.776153      31.241347      65.668302    
     41300   250.54215      0.1652         0.41959793    -5091.2739     -5790.5819      28.776153      31.241347      65.690852    
     41400   242.57228      0.1656         0.39216196    -4638.3763     -5798.0631      28.776153      31.241347      65.713403    
     41500   247.65646      0.166      153      31.241347      65.127079    
     38900   245.84187      0.1556         0.4158073     -5093.109      -6230.7685      28.776153      31.241347      65.14963     
     39000   246.74544      0.156          0.46014099    -5211.9764     -6364.8592      28.776153      31.241347      65.172181    
     39100   248.57503      0.1564         0.4923819     -5106.8772     -6288.4285      28.776153      31.241347      65.194732    
     39200   248.20292      0.1568         0.64043579       41900   244.58463      0.1676         0.29588555    -3757.2815     -4961.7882      28.776153      31.241347      65.826158    
     42000   242.45184      0.168          0.24928626    -4199.4728     -5568.3139      28.776153      31.241347      65.848709    
     42100   250.62274      0.1684         0.18276966    -3495.1729     -4971.57        28.776153      31.241347      65.87126     
     42200   243.04076      0.1688         0.13158551    -2916.293      -4512.4614      28.776153      31.241347      65.893811    
     42300   240.61         0.1692         0.24512446    -4037.2782     -5293.7365      28.776153      31.241347      65.916362    
     42400   245.94673      0.1696         0.21136959    -3800.0859     -4861.2919      28.776153      31.241347      65.938913    
     42500   253.10902      0.17           0.20972009    -3835.6214     -5230.7845      28.776153      31.241347      65.961464    
     42600   240.86442      0.1704         0.36134147    -4473.6618     -5320.502       28.776153      31.241347      65.984015    
     42700   248.02747      0.1708         0.36421593    -4333.2901     -5614.4008      28.776153      31.241347      66.006565    
     42800   245.9802       0.1712         0.29481286    -4049.1242     -5546.0502      28.776153      31.241347      66.029116    
     42900   244.71721      0.1716         0.3602231     -4144.3637     -5598.9996      28.776153      31.241347      66.051667    
     43000   247.87153      0.172          0.3137346     -4259.0264     -5501.2279      28.776153      31.241347      66.074218    
     43100   246.20476      0.1724         0.23046005    -3659.584      -4921.4517      28.776153      31.241347      66.096769    
     43200   240.85844      0.1728         0.20568376    -3820.5623     -4428.0772      28.776153      31.241347      66.11932     
     43300   246.07017      0.1732         0.21217413    -3885.9791     -5080.0051      28.776153      31.241347      66.141871    
     43400   248.36286      0.1736         0.28338704    -3949.4141     -5011.5898      28.776153      31.241347      66.164422    
     43500   247.30405      0.174          0.2726551     -3569.7493     -4978.104       28.776153      31.241347      66.186973    
     43600   243.32429      0.1744         0.36946228    -4385.287      -5855.1324      28.776153      31.241347      66.209524    
     43700   249.6845       0.1748         0.2096334     -3425.4995     -4207.1579      28.776153      31.241347      66.232075    
     43800   248.0886       0.1752         0.27164274    -4061.1747     -4703.9259      28.776153      31.241347      66.254626    
     43900   249.00219      0.1756         0.18115231    -3466.5886     -4555.0833      28.776153      31.241347      66.277177    
     44000   247.22278      0.176          0.21790868    -3359.8847     -4709.366       28.776153      31.241347      66.299728    
     44100   245.10961      0.1764         0.20351001    -3321.8909     -4691.7461      28.776153      31.241347      66.322278    
     44200   242.80606      0.1768         0.19770289    -3183.5356     -4707.5824      28.776153      31.241347      66.344829    
     44300   241.71788      0.1772         0.31463254    -4486.7754     -5846.5408      28.776153      31.241347      66.36738     
     44400   248.16001      0.1776         0.21139178    -3415.174      -4634.7465      28.776153      31.241347      66.389931    
     44500   248.74673      0.178          0.11162285    -3167.2914     -4229.1035      28.776153      31.241347      66.412482    
     44600   240.72393      0.1784              31.241347      65.826158    
     42000   242.45184      0.168          0.24928626    -4199.4728     -5568.3139      28.776153      31.241347      65.848709    
     42100   250.62274      0.1684         0.18276966    -3495.1729     -4971.57        28.776153      31.241347      65.87126     
     42200   243.04076      0.1688         0.13158551    -2916.293      -4512.4614      28.776153      31.241347      65.893811    
     42300   240.61         0.1692         0.24512446       45000   241.26186      0.18           0.29473342    -4199.1759     -5066.0399      28.776153      31.241347      66.525237    
     45100   248.84025      0.1804         0.31084303    -4097.3714     -5051.4009      28.776153      31.241347      66.547788    
     45200   248.09513      0.1808         0.28314125    -3183.7432     -4611.5002      28.776153      31.241347      66.570339    
     45300   240.49752      0.1812         0.28660327    -3767.6646     -4781.4964      28.776153      31.241347      66.59289     
     45400   249.18074      0.1816         0.15110011    -3240.6825     -4345.77        28.776153      31.241347      66.615441    
     45500   248.24922      0.182          0.17951109    -3340.2312     -4395.4678      28.776153      31.241347      66.637991    
     45600   241.63913      0.1824         0.2316694     -3374.343      -4433.6702      28.776153      31.241347      66.660542    
     45700   241.07424      0.1828         0.19634252    -3052.2118     -4277.0152      28.776153      31.241347      66.683093    
     45800   237.2305       0.1832         0.25461108    -3658.3177     -5022.0731      28.776153      31.241347      66.705644    
     45900   247.69478      0.1836         0.29341231    -3975.4826     -4833.7562      28.776153      31.241347      66.728195    
     46000   247.59991      0.184          0.31699138    -4300.2281     -5435.7483      28.776153      31.241347      66.750746    
     46100   243.53153      0.1844         0.1569407     -3101.394      -4588.0677      28.776153      31.241347      66.773297    
     46200   250.30863      0.1848         0.13495983    -2911.4937     -4198.9105      28.776153      31.241347      66.795848    
     46300   246.24291      0.1852         0.23402077    -3818.0801     -4864.9254      28.776153      31.241347      66.818399    
     46400   239.86065      0.1856         0.17664329    -3419.5443     -4335.7451      28.776153      31.241347      66.84095     
     46500   247.10121      0.186          0.21592627    -3793.7519     -4968.2164      28.776153      31.241347      66.863501    
     46600   252.05025      0.1864         0.17969206    -3189.7897     -4134.8019      28.776153      31.241347      66.886052    
     46700   245.96606      0.1868         0.26613569    -3641.629      -4887.5527      28.776153      31.241347      66.908603    
     46800   239.41721      0.1872         0.34973378    -4453.4253     -5467.1797      28.776153      31.241347      66.931154    
     46900   250.69275      0.1876         0.19083434    -3291.2966     -4540.9482      28.776153      31.241347      66.953704    
     47000   246.19379      0.188          0.17860487    -3309.6527     -4284.2766      28.776153      31.241347      66.976255    
     47100   243.94068      0.1884         0.2403668     -3892.9828     -5222.1233      28.776153      31.241347      66.998806    
     47200   250.18217      0.1888         0.29906592    -3989.2773     -5033.2369      28.776153      31.241347      67.021357    
     47300   250.10393      0.1892         0.27574179    -3741.1063     -5054.7475      28.776153      31.241347      67.043908    
     47400   247.54142      0.1896         0.19077802    -3211.5976     -4834.5523      28.776153      31.241347      67.066459    
     47500   252.20524      0.19           0.2804665     -3931.3807     -5023.1876      28.776153      31.241347      67.08901     
     47600   243.54715      0.1904         0.19030725    -3212.1364     -4643.961       28.776153      31.241347      67.111561    
     47700   245.97845      0.1908         0.16 31.241347      66.525237    
     45100   248.84025      0.1804         0.31084303    -4097.3714     -5051.4009      28.776153      31.241347      66.547788    
     45200   248.09513      0.1808         0.28314125    -3183.7432     -4611.5002      28.776153      31.241347      66.570339    
     45300   240.49752      0.1812         0.28660327    -3767.6646     -4781.4964      28.776153      31.241347      66.59289     
     45400   249.18074      0.1816         0.15110011       48100   240.28074      0.1924         0.15278661    -2521.4394     -4096.0577      28.776153      31.241347      67.224316    
     48200   250.22488      0.1928         0.11943812    -2870.5417     -3843.5061      28.776153      31.241347      67.246867    
     48300   242.44246      0.1932         0.26829696    -3738.8532     -4718.3181      28.776153      31.241347      67.269417    
     48400   243.54473      0.1936         0.23368899    -3746.434      -4362.1147      28.776153      31.241347      67.291968    
     48500   244.91578      0.194          0.2614678     -3629.1814     -5157.7725      28.776153      31.241347      67.314519    
     48600   240.57879      0.1944         0.18834759    -3471.2361     -4977.6289      28.776153      31.241347      67.33707     
     48700   243.44152      0.1948         0.22417537    -3668.5337     -5562.5671      28.776153      31.241347      67.359621    
     48800   246.44634      0.1952         0.18309426    -3416.8829     -4516.3685      28.776153      31.241347      67.382172    
Fix halt condition for fix-id halt_frac met on step 48900 with value 1
     48900   252.67603      0.1956         0.063855905   -2401.9031     -4455.8882      28.776153      31.241347      67.404723    
Loop time of 123.575 on 4 procs for 48900 steps with 3954 atoms

Performance: 68.379 ns/day, 0.351 hours/ns, 395.710 timesteps/s, 1.565 Matom-step/s
103.4% CPU use with 4 MPI tasks x 1 OpenMP threads

MPI task timing breakdown:
Section |  min time  |  avg time  |  max time  |%varavg| %total
---------------------------------------------------------------
Pair    | 74.481     | 95.304     | 113.2      | 170.8 | 77.12
Neigh   | 0.64278    | 1.1586     | 1.7642     |  42.8 |  0.94
Comm    | 4.8994     | 21.79      | 44.766     | 345.4 | 17.63
Output  | 1.4116     | 1.7702     | 2.1339     |  19.7 |  1.43
Modify  | 1.18       | 2.9154     | 7.9828     | 171.4 |  2.36
Other   |            | 0.638      |            |       |  0.52

Nlocal:          988.5 ave        1344 max         412 min
Histogram: 1 0 0 0 0 0 1 0 1 1
Nghost:        3062.25 ave        3506 max        2427 min
Histogram: 1 0 0 0 0 1 0 0 1 1
Neighs:        87744.5 ave      148949 max       30346 min
Histogram: 1 0 1 0 0 0 1 0 0 1

Total # of neighbors = 350978
Ave neighs/atom = 88.765301
Neighbor list builds = 738
Dangerous builds = 0
Total wall time: 0:02:44
33.2369      28.776153      31.241347      67.021357    
     47300   250.10393      0.1892         0.27574179    -3741.1063     -5054.7475      28.776153      31.241347      67.043908    
     47400   247.54142      0.1896         0.19077802    -3211.5976     -4834.5523      28.776153      31.241347      67.066459    
     47500   252.20524      0.19           0.2804665     -3931.3807     -5023.1876      28.776153      31.241347      67.08901     
     47600   243.54715      0.1904         0.19030725    -3212.1364     -4643.961       28.776153      31.241347      67.111561    
     47700   245.97845      0.1908         0.16311904    -3065.2393     -4343.5969      28.776153      31.241347      67.134112    
     47800   244.78366      0.1912         0.14093916    -2520.779      -4506.428       28.776153      31.241347      67.156663    
     47900   250.13143      0.1916         0.10583575    -2757.4439     -4033.4767      28.776153      31.241347      67.179214    
     48000   248.58285      0.192          0.23976979    -3935.985      -4910.1324      28.776153      31.241347      67.201765    
     48100   240.28074      0.1924         0.15278661    -2521.4394     -4096.0577      28.776153      31.241347      67.224316    
     48200   250.22488      0.1928         0.11943812    -2870.5417     -3843.5061      28.776153      31.241347      67.246867    
     48300   242.44246      0.1932         0.26829696    -3738.8532     -4718.3181      28.776153      31.241347      67.269417    
     48400   243.54473      0.1936         0.23368899    -3746.434      -4362.1147      28.776153      31.241347      67.291968    
     48500   244.91578      0.194          0.2614678     -3629.1814     -5157.7725      28.776153      31.241347      67.314519    
     48600   240.57879      0.1944         0.18834759    -3471.2361     -4977.6289      28.776153      31.241347      67.33707     
     48700   243.44152      0.1948         0.22417537    -3668.5337     -5562.5671      28.776153      31.241347      67.359621    
     48800   246.44634      0.1952         0.18309426    -3416.8829     -4516.3685      28.776153      31.241347      67.382172    
Fix halt condition for fix-id halt_frac met on step 48900 with value 1
     48900   252.67603      0.1956         0.063855905   -2401.9031     -4455.8882      28.776153      31.241347      67.404723    
Loop time of 123.575 on 4 procs for 48900 steps with 3954 atoms

Performance: 68.379 ns/day, 0.351 hours/ns, 395.710 timesteps/s, 1.565 Matom-step/s
103.4% CPU use with 4 MPI tasks x 1 OpenMP threads

MPI task timing breakdown:
Section |  min time  |  avg time  |  max time  |%varavg| %total
---------------------------------------------------------------
Pair    | 74.481     | 95.304     | 113.2      | 170.8 | 77.12
Neigh   | 0.64278    | 1.1586     | 1.7642     |  42.8 |  0.94
Comm    | 4.8994     | 21.79      | 44.766     | 345.4 | 17.63
Output  | 1.4116     | 1.7702     | 2.1339     |  19.7 |  1.43
Modify  | 1.18       | 2.9154     | 7.9828     | 171.4 |  2.36
Other   |            | 0.638      |            |       |  0.52

Nlocal:          988.5 ave        1344 max         412 min
Histogram: 1 0 0 0 0 0 1 0 1 1
Nghost:        3062.25 ave        3506 max        2427 min
Histogram: 1 0 0 0 0 1 0 0 1 1
Neighs:        87744.5 ave      148949 max       30346 min
Histogram: 1 0 1 0 0 0 1 0 0 1

Total # of neighbors = 350978
Ave neighs/atom = 88.765301
Neighbor list builds = 738
Dangerous builds = 0
Total wall time: 0:02:44
