(written by ASE)

768 atoms
1 atom types

0.0       23.06865162942993  xlo xhi
0.0      24.468000000000004  ylo yhi
0.0       23.06865162942993  zlo zhi

Atoms # atomic

     1   1      2.8835814536787407                       0  3.9661714930916714e-18
     2   1      4.3253721805181113      2.0390000000000001      1.4417907268393704
     3   1                       0                       0                       0
     4   1      1.4417907268393704      2.0390000000000001      1.4417907268393704
     5   1 -2.1807843343193964e-16                       0      2.8835814536787412
     6   1      2.8835814536787407                       0      2.8835814536787407
     7   1      4.3253721805181113      2.0390000000000001      4.3253721805181113
     8   1      1.4417907268393702      2.0390000000000001      4.3253721805181113
     9   1      2.8835814536787412                       0      5.7671629073574815
    10   1      4.3253721805181113      2.0390000000000001      7.2089536341968516
    11   1  7.9323429861833427e-18                       0      5.7671629073574815
    12   1      1.4417907268393706      2.0390000000000001      7.2089536341968525
    13   1  1.0387240129099869e-16                       0      8.6507443610362227
    14   1      2.8835814536787407                       0      8.6507443610362227
    15   1      4.3253721805181105      2.0390000000000001      10.092535087875593
    16   1      1.4417907268393702      2.0390000000000001      10.092535087875593
    17   1      2.8835814536787403                       0      11.534325814714963
    18   1      4.3253721805181113      2.0390000000000001      12.976116541554335
    19   1  1.5864685972366685e-17                       0      11.534325814714963
    20   1      1.4417907268393702      2.0390000000000001      12.976116541554333
    21   1 -7.2143029346265319e-17                       0      14.417907268393703
    22   1      2.8835814536787412                       0      14.417907268393705
    23   1      4.3253721805181113      2.0390000000000001      15.859697995233075
    24   1      1.4417907268393713      2.0390000000000001      15.859697995233075
    25   1      2.8835814536787403                       0      17.301488722072445
    26   1      4.3253721805181105      2.0390000000000001      18.743279448911817
    27   1  2.0774480258199738e-16                       0      17.301488722072445
    28   1      1.4417907268393704      2.0390000000000001      18.743279448911817
    29   1 -1.6566197521368851e-15                       0      20.185070175751189
    30   1      2.8835814536787403                       0      20.185070175751186
    31   1      4.3253721805181113      2.0390000000000001      21.626860902590558
    32   1      1.4417907268393684      2.0390000000000001      21.626860902590558
    33   1      2.8835814536787407      4.0780000000000003  3.9661714930916714e-18
    34   1      4.3253721805181113      6.1170000000000009      1.4417907268393704
    35   1                       0      4.0780000000000003                       0
    36   1      1.4417907268393704      6.1170000000000009      1.4417907268393704
    37   1 -2.1807843343193964e-16      4.0780000000000003      2.8835814536787412
    38   1      2.8835814536787407      4.0780000000000003      2.8835814536787407
    39   1      4.3253721805181113      6.1170000000000009      4.3253721805181113
    40   1      1.4417907268393702      6.1170000000000009      4.3253721805181113
    41   1      2.8835814536787412      4.0780000000000003      5.7671629073574815
    42   1      4.3253721805181113      6.1170000000000009      7.2089536341968516
    43   1  7.9323429861833427e-18      4.0780000000000003      5.7671629073574815
    44   1      1.4417907268393706      6.1170000000000009      7.2089536341968525
    45   1  1.0387240129099869e-16      4.0780000000000003      8.6507443610362227
    46   1      2.8835814536787407      4.0780000000000003      8.6507443610362227
    47   1      4.3253721805181105      6.1170000000000009      10.092535087875593
    48   1      1.4417907268393702      6.1170000000000009      10.092535087875593
    49   1      2.8835814536787403      4.0780000000000003      11.534325814714963
    50   1      4.3253721805181113      6.1170000000000009      12.976116541554335
    51   1  1.5864685972366685e-17      4.0780000000000003      11.534325814714963
    52   1      1.4417907268393702      6.1170000000000009      12.976116541554333
    53   1 -7.2143029346265319e-17      4.0780000000000003      14.417907268393703
    54   1      2.8835814536787412      4.0780000000000003      14.417907268393705
    55   1      4.3253721805181113      6.1170000000000009      15.859697995233075
    56   1      1.4417907268393713      6.1170000000000009      15.859697995233075
    57   1      2.8835814536787403      4.0780000000000003      17.301488722072445
    58   1      4.3253721805181105      6.1170000000000009      18.743279448911817
    59   1  2.0774480258199738e-16      4.0780000000000003      17.301488722072445
    60   1      1.4417907268393704      6.1170000000000009      18.743279448911817
    61   1 -1.6566197521368851e-15      4.0780000000000003      20.185070175751189
    62   1      2.8835814536787403      4.0780000000000003      20.185070175751186
    63   1      4.3253721805181113      6.1170000000000009      21.626860902590558
    64   1      1.4417907268393684      6.1170000000000009      21.626860902590558
    65   1      2.8835814536787407      8.1560000000000006  3.9661714930916714e-18
    66   1      4.3253721805181113                  10.195      1.4417907268393704
    67   1                       0      8.1560000000000006                       0
    68   1      1.4417907268393704                  10.195      1.4417907268393704
    69   1 -2.1807843343193964e-16      8.1560000000000006      2.8835814536787412
    70   1      2.8835814536787407      8.1560000000000006      2.8835814536787407
    71   1      4.3253721805181113                  10.195      4.3253721805181113
    72   1      1.4417907268393702                  10.195      4.3253721805181113
    73   1      2.8835814536787412      8.1560000000000006      5.7671629073574815
    74   1      4.3253721805181113                  10.195      7.2089536341968516
    75   1  7.9323429861833427e-18      8.1560000000000006      5.7671629073574815
    76   1      1.4417907268393706                  10.195      7.2089536341968525
    77   1  1.0387240129099869e-16      8.1560000000000006      8.6507443610362227
    78   1      2.8835814536787407      8.1560000000000006      8.6507443610362227
    79   1      4.3253721805181105                  10.195      10.092535087875593
    80   1      1.4417907268393702                  10.195      10.092535087875593
    81   1      2.8835814536787403      8.1560000000000006      11.534325814714963
    82   1      4.3253721805181113                  10.195      12.976116541554335
    83   1  1.5864685972366685e-17      8.1560000000000006      11.534325814714963
    84   1      1.4417907268393702                  10.195      12.976116541554333
    85   1 -7.2143029346265319e-17      8.1560000000000006      14.417907268393703
    86   1      2.8835814536787412      8.1560000000000006      14.417907268393705
    87   1      4.3253721805181113                  10.195      15.859697995233075
    88   1      1.4417907268393713                  10.195      15.859697995233075
    89   1      2.8835814536787403      8.1560000000000006      17.301488722072445
    90   1      4.3253721805181105                  10.195      18.743279448911817
    91   1  2.0774480258199738e-16      8.1560000000000006      17.301488722072445
    92   1      1.4417907268393704                  10.195      18.743279448911817
    93   1 -1.6566197521368851e-15      8.1560000000000006      20.185070175751189
    94   1      2.8835814536787403      8.1560000000000006      20.185070175751186
    95   1      4.3253721805181113                  10.195      21.626860902590558
    96   1      1.4417907268393684                  10.195      21.626860902590558
    97   1      2.8835814536787407      12.234000000000002  3.9661714930916714e-18
    98   1      4.3253721805181113      14.273000000000001      1.4417907268393704
    99   1                       0      12.234000000000002                       0
   100   1      1.4417907268393704      14.273000000000001      1.4417907268393704
   101   1 -2.1807843343193964e-16      12.234000000000002      2.8835814536787412
   102   1      2.8835814536787407      12.234000000000002      2.8835814536787407
   103   1      4.3253721805181113      14.273000000000001      4.3253721805181113
   104   1      1.4417907268393702      14.273000000000001      4.3253721805181113
   105   1      2.8835814536787412      12.234000000000002      5.7671629073574815
   106   1      4.3253721805181113      14.273000000000001      7.2089536341968516
   107   1  7.9323429861833427e-18      12.234000000000002      5.7671629073574815
   108   1      1.4417907268393706      14.273000000000001      7.2089536341968525
   109   1  1.0387240129099869e-16      12.234000000000002      8.6507443610362227
   110   1      2.8835814536787407      12.234000000000002      8.6507443610362227
   111   1      4.3253721805181105      14.273000000000001      10.092535087875593
   112   1      1.4417907268393702      14.273000000000001      10.092535087875593
   113   1      2.8835814536787403      12.234000000000002      11.534325814714963
   114   1      4.3253721805181113      14.273000000000001      12.976116541554335
   115   1  1.5864685972366685e-17      12.234000000000002      11.534325814714963
   116   1      1.4417907268393702      14.273000000000001      12.976116541554333
   117   1 -7.2143029346265319e-17      12.234000000000002      14.417907268393703
   118   1      2.8835814536787412      12.234000000000002      14.417907268393705
   119   1      4.3253721805181113      14.273000000000001      15.859697995233075
   120   1      1.4417907268393713      14.273000000000001      15.859697995233075
   121   1      2.8835814536787403      12.234000000000002      17.301488722072445
   122   1      4.3253721805181105      14.273000000000001      18.743279448911817
   123   1  2.0774480258199738e-16      12.234000000000002      17.301488722072445
   124   1      1.4417907268393704      14.273000000000001      18.743279448911817
   125   1 -1.6566197521368851e-15      12.234000000000002      20.185070175751189
   126   1      2.8835814536787403      12.234000000000002      20.185070175751186
   127   1      4.3253721805181113      14.273000000000001      21.626860902590558
   128   1      1.4417907268393684      14.273000000000001      21.626860902590558
   129   1      2.8835814536787407      16.312000000000001  3.9661714930916714e-18
   130   1      4.3253721805181113      18.351000000000003      1.4417907268393704
   131   1                       0      16.312000000000001                       0
   132   1      1.4417907268393704      18.351000000000003      1.4417907268393704
   133   1 -2.1807843343193964e-16      16.312000000000001      2.8835814536787412
   134   1      2.8835814536787407      16.312000000000001      2.8835814536787407
   135   1      4.3253721805181113      18.351000000000003      4.3253721805181113
   136   1      1.4417907268393702      18.351000000000003      4.3253721805181113
   137   1      2.8835814536787412      16.312000000000001      5.7671629073574815
   138   1      4.3253721805181113      18.351000000000003      7.2089536341968516
   139   1  7.9323429861833427e-18      16.312000000000001      5.7671629073574815
   140   1      1.4417907268393706      18.351000000000003      7.2089536341968525
   141   1  1.0387240129099869e-16      16.312000000000001      8.6507443610362227
   142   1      2.8835814536787407      16.312000000000001      8.6507443610362227
   143   1      4.3253721805181105      18.351000000000003      10.092535087875593
   144   1      1.4417907268393702      18.351000000000003      10.092535087875593
   145   1      2.8835814536787403      16.312000000000001      11.534325814714963
   146   1      4.3253721805181113      18.351000000000003      12.976116541554335
   147   1  1.5864685972366685e-17      16.312000000000001      11.534325814714963
   148   1      1.4417907268393702      18.351000000000003      12.976116541554333
   149   1 -7.2143029346265319e-17      16.312000000000001      14.417907268393703
   150   1      2.8835814536787412      16.312000000000001      14.417907268393705
   151   1      4.3253721805181113      18.351000000000003      15.859697995233075
   152   1      1.4417907268393713      18.351000000000003      15.859697995233075
   153   1      2.8835814536787403      16.312000000000001      17.301488722072445
   154   1      4.3253721805181105      18.351000000000003      18.743279448911817
   155   1  2.0774480258199738e-16      16.312000000000001      17.301488722072445
   156   1      1.4417907268393704      18.351000000000003      18.743279448911817
   157   1 -1.6566197521368851e-15      16.312000000000001      20.185070175751189
   158   1      2.8835814536787403      16.312000000000001      20.185070175751186
   159   1      4.3253721805181113      18.351000000000003      21.626860902590558
   160   1      1.4417907268393684      18.351000000000003      21.626860902590558
   161   1      2.8835814536787407      20.390000000000001  3.9661714930916714e-18
   162   1      4.3253721805181113      22.429000000000002      1.4417907268393704
   163   1                       0      20.390000000000001                       0
   164   1      1.4417907268393704      22.429000000000002      1.4417907268393704
   165   1 -2.1807843343193964e-16      20.390000000000001      2.8835814536787412
   166   1      2.8835814536787407      20.390000000000001      2.8835814536787407
   167   1      4.3253721805181113      22.429000000000002      4.3253721805181113
   168   1      1.4417907268393702      22.429000000000002      4.3253721805181113
   169   1      2.8835814536787412      20.390000000000001      5.7671629073574815
   170   1      4.3253721805181113      22.429000000000002      7.2089536341968516
   171   1  7.9323429861833427e-18      20.390000000000001      5.7671629073574815
   172   1      1.4417907268393706      22.429000000000002      7.2089536341968525
   173   1  1.0387240129099869e-16      20.390000000000001      8.6507443610362227
   174   1      2.8835814536787407      20.390000000000001      8.6507443610362227
   175   1      4.3253721805181105      22.429000000000002      10.092535087875593
   176   1      1.4417907268393702      22.429000000000002      10.092535087875593
   177   1      2.8835814536787403      20.390000000000001      11.534325814714963
   178   1      4.3253721805181113      22.429000000000002      12.976116541554335
   179   1  1.5864685972366685e-17      20.390000000000001      11.534325814714963
   180   1      1.4417907268393702      22.429000000000002      12.976116541554333
   181   1 -7.2143029346265319e-17      20.390000000000001      14.417907268393703
   182   1      2.8835814536787412      20.390000000000001      14.417907268393705
   183   1      4.3253721805181113      22.429000000000002      15.859697995233075
   184   1      1.4417907268393713      22.429000000000002      15.859697995233075
   185   1      2.8835814536787403      20.390000000000001      17.301488722072445
   186   1      4.3253721805181105      22.429000000000002      18.743279448911817
   187   1  2.0774480258199738e-16      20.390000000000001      17.301488722072445
   188   1      1.4417907268393704      22.429000000000002      18.743279448911817
   189   1 -1.6566197521368851e-15      20.390000000000001      20.185070175751189
   190   1      2.8835814536787403      20.390000000000001      20.185070175751186
   191   1      4.3253721805181113      22.429000000000002      21.626860902590558
   192   1      1.4417907268393684      22.429000000000002      21.626860902590558
   193   1      8.6507443610362227                       0  1.0387240129099869e-16
   194   1      10.092535087875593      2.0390000000000001      1.4417907268393702
   195   1      5.7671629073574815                       0  7.9323429861833427e-18
   196   1      7.2089536341968525      2.0390000000000001      1.4417907268393706
   197   1      5.7671629073574815                       0      2.8835814536787412
   198   1      8.6507443610362227                       0      2.8835814536787407
   199   1      10.092535087875593      2.0390000000000001      4.3253721805181105
   200   1      7.2089536341968516      2.0390000000000001      4.3253721805181113
   201   1      8.6507443610362227                       0      5.7671629073574815
   202   1      10.092535087875593      2.0390000000000001      7.2089536341968525
   203   1      5.7671629073574815                       0      5.7671629073574815
   204   1      7.2089536341968516      2.0390000000000001      7.2089536341968516
   205   1      5.7671629073574806                       0      8.6507443610362227
   206   1      8.6507443610362227                       0      8.6507443610362227
   207   1      10.092535087875593      2.0390000000000001      10.092535087875593
   208   1      7.2089536341968525      2.0390000000000001      10.092535087875593
   209   1      8.6507443610362227                       0      11.534325814714963
   210   1      10.092535087875593      2.0390000000000001      12.976116541554333
   211   1      5.7671629073574824                       0      11.534325814714963
   212   1      7.2089536341968525      2.0390000000000001      12.976116541554333
   213   1      5.7671629073574815                       0      14.417907268393705
   214   1      8.6507443610362227                       0      14.417907268393703
   215   1      10.092535087875593      2.0390000000000001      15.859697995233075
   216   1      7.2089536341968516      2.0390000000000001      15.859697995233075
   217   1      8.6507443610362209                       0      17.301488722072449
   218   1      10.092535087875589      2.0390000000000001      18.743279448911817
   219   1      5.7671629073574806                       0      17.301488722072445
   220   1      7.2089536341968516      2.0390000000000001      18.743279448911817
   221   1      5.7671629073574797                       0      20.185070175751189
   222   1      8.6507443610362209                       0      20.185070175751186
   223   1      10.092535087875593      2.0390000000000001      21.626860902590558
   224   1       7.208953634196849      2.0390000000000001      21.626860902590558
   225   1      8.6507443610362227      4.0780000000000003  1.0387240129099869e-16
   226   1      10.092535087875593      6.1170000000000009      1.4417907268393702
   227   1      5.7671629073574815      4.0780000000000003  7.9323429861833427e-18
   228   1      7.2089536341968525      6.1170000000000009      1.4417907268393706
   229   1      5.7671629073574815      4.0780000000000003      2.8835814536787412
   230   1      8.6507443610362227      4.0780000000000003      2.8835814536787407
   231   1      10.092535087875593      6.1170000000000009      4.3253721805181105
   232   1      7.2089536341968516      6.1170000000000009      4.3253721805181113
   233   1      8.6507443610362227      4.0780000000000003      5.7671629073574815
   234   1      10.092535087875593      6.1170000000000009      7.2089536341968525
   235   1      5.7671629073574815      4.0780000000000003      5.7671629073574815
   236   1      7.2089536341968516      6.1170000000000009      7.2089536341968516
   237   1      5.7671629073574806      4.0780000000000003      8.6507443610362227
   238   1      8.6507443610362227      4.0780000000000003      8.6507443610362227
   239   1      10.092535087875593      6.1170000000000009      10.092535087875593
   240   1      7.2089536341968525      6.1170000000000009      10.092535087875593
   241   1      8.6507443610362227      4.0780000000000003      11.534325814714963
   242   1      10.092535087875593      6.1170000000000009      12.976116541554333
   243   1      5.7671629073574824      4.0780000000000003      11.534325814714963
   244   1      7.2089536341968525      6.1170000000000009      12.976116541554333
   245   1      5.7671629073574815      4.0780000000000003      14.417907268393705
   246   1      8.6507443610362227      4.0780000000000003      14.417907268393703
   247   1      10.092535087875593      6.1170000000000009      15.859697995233075
   248   1      7.2089536341968516      6.1170000000000009      15.859697995233075
   249   1      8.6507443610362209      4.0780000000000003      17.301488722072449
   250   1      10.092535087875589      6.1170000000000009      18.743279448911817
   251   1      5.7671629073574806      4.0780000000000003      17.301488722072445
   252   1      7.2089536341968516      6.1170000000000009      18.743279448911817
   253   1      5.7671629073574797      4.0780000000000003      20.185070175751189
   254   1      8.6507443610362209      4.0780000000000003      20.185070175751186
   255   1      10.092535087875593      6.1170000000000009      21.626860902590558
   256   1       7.208953634196849      6.1170000000000009      21.626860902590558
   257   1      8.6507443610362227      8.1560000000000006  1.0387240129099869e-16
   258   1      10.092535087875593                  10.195      1.4417907268393702
   259   1      5.7671629073574815      8.1560000000000006  7.9323429861833427e-18
   260   1      7.2089536341968525                  10.195      1.4417907268393706
   261   1      5.7671629073574815      8.1560000000000006      2.8835814536787412
   262   1      8.6507443610362227      8.1560000000000006      2.8835814536787407
   263   1      10.092535087875593                  10.195      4.3253721805181105
   264   1      7.2089536341968516                  10.195      4.3253721805181113
   265   1      8.6507443610362227      8.1560000000000006      5.7671629073574815
   266   1      10.092535087875593                  10.195      7.2089536341968525
   267   1      5.7671629073574815      8.1560000000000006      5.7671629073574815
   268   1      7.2089536341968516                  10.195      7.2089536341968516
   269   1      5.7671629073574806      8.1560000000000006      8.6507443610362227
   270   1      8.6507443610362227      8.1560000000000006      8.6507443610362227
   271   1      10.092535087875593                  10.195      10.092535087875593
   272   1      7.2089536341968525                  10.195      10.092535087875593
   273   1      8.6507443610362227      8.1560000000000006      11.534325814714963
   274   1      10.092535087875593                  10.195      12.976116541554333
   275   1      5.7671629073574824      8.1560000000000006      11.534325814714963
   276   1      7.2089536341968525                  10.195      12.976116541554333
   277   1      5.7671629073574815      8.1560000000000006      14.417907268393705
   278   1      8.6507443610362227      8.1560000000000006      14.417907268393703
   279   1      10.092535087875593                  10.195      15.859697995233075
   280   1      7.2089536341968516                  10.195      15.859697995233075
   281   1      8.6507443610362209      8.1560000000000006      17.301488722072449
   282   1      10.092535087875589                  10.195      18.743279448911817
   283   1      5.7671629073574806      8.1560000000000006      17.301488722072445
   284   1      7.2089536341968516                  10.195      18.743279448911817
   285   1      5.7671629073574797      8.1560000000000006      20.185070175751189
   286   1      8.6507443610362209      8.1560000000000006      20.185070175751186
   287   1      10.092535087875593                  10.195      21.626860902590558
   288   1       7.208953634196849                  10.195      21.626860902590558
   289   1      8.6507443610362227      12.234000000000002  1.0387240129099869e-16
   290   1      10.092535087875593      14.273000000000001      1.4417907268393702
   291   1      5.7671629073574815      12.234000000000002  7.9323429861833427e-18
   292   1      7.2089536341968525      14.273000000000001      1.4417907268393706
   293   1      5.7671629073574815      12.234000000000002      2.8835814536787412
   294   1      8.6507443610362227      12.234000000000002      2.8835814536787407
   295   1      10.092535087875593      14.273000000000001      4.3253721805181105
   296   1      7.2089536341968516      14.273000000000001      4.3253721805181113
   297   1      8.6507443610362227      12.234000000000002      5.7671629073574815
   298   1      10.092535087875593      14.273000000000001      7.2089536341968525
   299   1      5.7671629073574815      12.234000000000002      5.7671629073574815
   300   1      7.2089536341968516      14.273000000000001      7.2089536341968516
   301   1      5.7671629073574806      12.234000000000002      8.6507443610362227
   302   1      8.6507443610362227      12.234000000000002      8.6507443610362227
   303   1      10.092535087875593      14.273000000000001      10.092535087875593
   304   1      7.2089536341968525      14.273000000000001      10.092535087875593
   305   1      8.6507443610362227      12.234000000000002      11.534325814714963
   306   1      10.092535087875593      14.273000000000001      12.976116541554333
   307   1      5.7671629073574824      12.234000000000002      11.534325814714963
   308   1      7.2089536341968525      14.273000000000001      12.976116541554333
   309   1      5.7671629073574815      12.234000000000002      14.417907268393705
   310   1      8.6507443610362227      12.234000000000002      14.417907268393703
   311   1      10.092535087875593      14.273000000000001      15.859697995233075
   312   1      7.2089536341968516      14.273000000000001      15.859697995233075
   313   1      8.6507443610362209      12.234000000000002      17.301488722072449
   314   1      10.092535087875589      14.273000000000001      18.743279448911817
   315   1      5.7671629073574806      12.234000000000002      17.301488722072445
   316   1      7.2089536341968516      14.273000000000001      18.743279448911817
   317   1      5.7671629073574797      12.234000000000002      20.185070175751189
   318   1      8.6507443610362209      12.234000000000002      20.185070175751186
   319   1      10.092535087875593      14.273000000000001      21.626860902590558
   320   1       7.208953634196849      14.273000000000001      21.626860902590558
   321   1      8.6507443610362227      16.312000000000001  1.0387240129099869e-16
   322   1      10.092535087875593      18.351000000000003      1.4417907268393702
   323   1      5.7671629073574815      16.312000000000001  7.9323429861833427e-18
   324   1      7.2089536341968525      18.351000000000003      1.4417907268393706
   325   1      5.7671629073574815      16.312000000000001      2.8835814536787412
   326   1      8.6507443610362227      16.312000000000001      2.8835814536787407
   327   1      10.092535087875593      18.351000000000003      4.3253721805181105
   328   1      7.2089536341968516      18.351000000000003      4.3253721805181113
   329   1      8.6507443610362227      16.312000000000001      5.7671629073574815
   330   1      10.092535087875593      18.351000000000003      7.2089536341968525
   331   1      5.7671629073574815      16.312000000000001      5.7671629073574815
   332   1      7.2089536341968516      18.351000000000003      7.2089536341968516
   333   1      5.7671629073574806      16.312000000000001      8.6507443610362227
   334   1      8.6507443610362227      16.312000000000001      8.6507443610362227
   335   1      10.092535087875593      18.351000000000003      10.092535087875593
   336   1      7.2089536341968525      18.351000000000003      10.092535087875593
   337   1      8.6507443610362227      16.312000000000001      11.534325814714963
   338   1      10.092535087875593      18.351000000000003      12.976116541554333
   339   1      5.7671629073574824      16.312000000000001      11.534325814714963
   340   1      7.2089536341968525      18.351000000000003      12.976116541554333
   341   1      5.7671629073574815      16.312000000000001      14.417907268393705
   342   1      8.6507443610362227      16.312000000000001      14.417907268393703
   343   1      10.092535087875593      18.351000000000003      15.859697995233075
   344   1      7.2089536341968516      18.351000000000003      15.859697995233075
   345   1      8.6507443610362209      16.312000000000001      17.301488722072449
   346   1      10.092535087875589      18.351000000000003      18.743279448911817
   347   1      5.7671629073574806      16.312000000000001      17.301488722072445
   348   1      7.2089536341968516      18.351000000000003      18.743279448911817
   349   1      5.7671629073574797      16.312000000000001      20.185070175751189
   350   1      8.6507443610362209      16.312000000000001      20.185070175751186
   351   1      10.092535087875593      18.351000000000003      21.626860902590558
   352   1       7.208953634196849      18.351000000000003      21.626860902590558
   353   1      8.6507443610362227      20.390000000000001  1.0387240129099869e-16
   354   1      10.092535087875593      22.429000000000002      1.4417907268393702
   355   1      5.7671629073574815      20.390000000000001  7.9323429861833427e-18
   356   1      7.2089536341968525      22.429000000000002      1.4417907268393706
   357   1      5.7671629073574815      20.390000000000001      2.8835814536787412
   358   1      8.6507443610362227      20.390000000000001      2.8835814536787407
   359   1      10.092535087875593      22.429000000000002      4.3253721805181105