(written by ASE)

864 atoms
1 atom types

0.0      21.690000000000001  xlo xhi
0.0      21.690000000000001  ylo yhi
0.0      21.690000000000001  zlo zhi

Atoms # atomic

     1   1                       0                       0                       0
     2   1                       0      1.8075000000000001      1.8075000000000001
     3   1      1.8075000000000001                       0      1.8075000000000001
     4   1      1.8075000000000001      1.8075000000000001                       0
     5   1                       0                       0      3.6150000000000002
     6   1                       0      1.8075000000000001      5.4225000000000003
     7   1      1.8075000000000001                       0      5.4225000000000003
     8   1      1.8075000000000001      1.8075000000000001      3.6150000000000002
     9   1                       0                       0      7.2300000000000004
    10   1                       0      1.8075000000000001      9.0375000000000014
    11   1      1.8075000000000001                       0      9.0375000000000014
    12   1      1.8075000000000001      1.8075000000000001      7.2300000000000004
    13   1                       0                       0      10.845000000000001
    14   1                       0      1.8075000000000001                 12.6525
    15   1      1.8075000000000001                       0                 12.6525
    16   1      1.8075000000000001      1.8075000000000001      10.845000000000001
    17   1                       0                       0      14.460000000000001
    18   1                       0      1.8075000000000001      16.267500000000002
    19   1      1.8075000000000001                       0      16.267500000000002
    20   1      1.8075000000000001      1.8075000000000001      14.460000000000001
    21   1                       0                       0      18.075000000000003
    22   1                       0      1.8075000000000001      19.882500000000004
    23   1      1.8075000000000001                       0      19.882500000000004
    24   1      1.8075000000000001      1.8075000000000001      18.075000000000003
    25   1                       0      3.6150000000000002                       0
    26   1                       0      5.4225000000000003      1.8075000000000001
    27   1      1.8075000000000001      3.6150000000000002      1.8075000000000001
    28   1      1.8075000000000001      5.4225000000000003                       0
    29   1                       0      3.6150000000000002      3.6150000000000002
    30   1                       0      5.4225000000000003      5.4225000000000003
    31   1      1.8075000000000001      3.6150000000000002      5.4225000000000003
    32   1      1.8075000000000001      5.4225000000000003      3.6150000000000002
    33   1                       0      3.6150000000000002      7.2300000000000004
    34   1                       0      5.4225000000000003      9.0375000000000014
    35   1      1.8075000000000001      3.6150000000000002      9.0375000000000014
    36   1      1.8075000000000001      5.4225000000000003      7.2300000000000004
    37   1                       0      3.6150000000000002      10.845000000000001
    38   1                       0      5.4225000000000003                 12.6525
    39   1      1.8075000000000001      3.6150000000000002                 12.6525
    40   1      1.8075000000000001      5.4225000000000003      10.845000000000001
    41   1                       0      3.6150000000000002      14.460000000000001
    42   1                       0      5.4225000000000003      16.267500000000002
    43   1      1.8075000000000001      3.6150000000000002      16.267500000000002
    44   1      1.8075000000000001      5.4225000000000003      14.460000000000001
    45   1                       0      3.6150000000000002      18.075000000000003
    46   1                       0      5.4225000000000003      19.882500000000004
    47   1      1.8075000000000001      3.6150000000000002      19.882500000000004
    48   1      1.8075000000000001      5.4225000000000003      18.075000000000003
    49   1                       0      7.2300000000000004                       0
    50   1                       0      9.0375000000000014      1.8075000000000001
    51   1      1.8075000000000001      7.2300000000000004      1.8075000000000001
    52   1      1.8075000000000001      9.0375000000000014                       0
    53   1                       0      7.2300000000000004      3.6150000000000002
    54   1                       0      9.0375000000000014      5.4225000000000003
    55   1      1.8075000000000001      7.2300000000000004      5.4225000000000003
    56   1      1.8075000000000001      9.0375000000000014      3.6150000000000002
    57   1                       0      7.2300000000000004      7.2300000000000004
    58   1                       0      9.0375000000000014      9.0375000000000014
    59   1      1.8075000000000001      7.2300000000000004      9.0375000000000014
    60   1      1.8075000000000001      9.0375000000000014      7.2300000000000004
    61   1                       0      7.2300000000000004      10.845000000000001
    62   1                       0      9.0375000000000014                 12.6525
    63   1      1.8075000000000001      7.2300000000000004                 12.6525
    64   1      1.8075000000000001      9.0375000000000014      10.845000000000001
    65   1                       0      7.2300000000000004      14.460000000000001
    66   1                       0      9.0375000000000014      16.267500000000002
    67   1      1.8075000000000001      7.2300000000000004      16.267500000000002
    68   1      1.8075000000000001      9.0375000000000014      14.460000000000001
    69   1                       0      7.2300000000000004      18.075000000000003
    70   1                       0      9.0375000000000014      19.882500000000004
    71   1      1.8075000000000001      7.2300000000000004      19.882500000000004
    72   1      1.8075000000000001      9.0375000000000014      18.075000000000003
    73   1                       0      10.845000000000001                       0
    74   1                       0                 12.6525      1.8075000000000001
    75   1      1.8075000000000001      10.845000000000001      1.8075000000000001
    76   1      1.8075000000000001                 12.6525                       0
    77   1                       0      10.845000000000001      3.6150000000000002
    78   1                       0                 12.6525      5.4225000000000003
    79   1      1.8075000000000001      10.845000000000001      5.4225000000000003
    80   1      1.8075000000000001                 12.6525      3.6150000000000002
    81   1                       0      10.845000000000001      7.2300000000000004
    82   1                       0                 12.6525      9.0375000000000014
    83   1      1.8075000000000001      10.845000000000001      9.0375000000000014
    84   1      1.8075000000000001                 12.6525      7.2300000000000004
    85   1                       0      10.845000000000001      10.845000000000001
    86   1                       0                 12.6525                 12.6525
    87   1      1.8075000000000001      10.845000000000001                 12.6525
    88   1      1.8075000000000001                 12.6525      10.845000000000001
    89   1                       0      10.845000000000001      14.460000000000001
    90   1                       0                 12.6525      16.267500000000002
    91   1      1.8075000000000001      10.845000000000001      16.267500000000002
    92   1      1.8075000000000001                 12.6525      14.460000000000001
    93   1                       0      10.845000000000001      18.075000000000003
    94   1                       0                 12.6525      19.882500000000004
    95   1      1.8075000000000001      10.845000000000001      19.882500000000004
    96   1      1.8075000000000001                 12.6525      18.075000000000003
    97   1                       0      14.460000000000001                       0
    98   1                       0      16.267500000000002      1.8075000000000001
    99   1      1.8075000000000001      14.460000000000001      1.8075000000000001
   100   1      1.8075000000000001      16.267500000000002                       0
   101   1                       0      14.460000000000001      3.6150000000000002
   102   1                       0      16.267500000000002      5.4225000000000003
   103   1      1.8075000000000001      14.460000000000001      5.4225000000000003
   104   1      1.8075000000000001      16.267500000000002      3.6150000000000002
   105   1                       0      14.460000000000001      7.2300000000000004
   106   1                       0      16.267500000000002      9.0375000000000014
   107   1      1.8075000000000001      14.460000000000001      9.0375000000000014
   108   1      1.8075000000000001      16.267500000000002      7.2300000000000004
   109   1                       0      14.460000000000001      10.845000000000001
   110   1                       0      16.267500000000002                 12.6525
   111   1      1.8075000000000001      14.460000000000001                 12.6525
   112   1      1.8075000000000001      16.267500000000002      10.845000000000001
   113   1                       0      14.460000000000001      14.460000000000001
   114   1                       0      16.267500000000002      16.267500000000002
   115   1      1.8075000000000001      14.460000000000001      16.267500000000002
   116   1      1.8075000000000001      16.267500000000002      14.460000000000001
   117   1                       0      14.460000000000001      18.075000000000003
   118   1                       0      16.267500000000002      19.882500000000004
   119   1      1.8075000000000001      14.460000000000001      19.882500000000004
   120   1      1.8075000000000001      16.267500000000002      18.075000000000003
   121   1                       0      18.075000000000003                       0
   122   1                       0      19.882500000000004      1.8075000000000001
   123   1      1.8075000000000001      18.075000000000003      1.8075000000000001
   124   1      1.8075000000000001      19.882500000000004                       0
   125   1                       0      18.075000000000003      3.6150000000000002
   126   1                       0      19.882500000000004      5.4225000000000003
   127   1      1.8075000000000001      18.075000000000003      5.4225000000000003
   128   1      1.8075000000000001      19.882500000000004      3.6150000000000002
   129   1                       0      18.075000000000003      7.2300000000000004
   130   1                       0      19.882500000000004      9.0375000000000014
   131   1      1.8075000000000001      18.075000000000003      9.0375000000000014
   132   1      1.8075000000000001      19.882500000000004      7.2300000000000004
   133   1                       0      18.075000000000003      10.845000000000001
   134   1                       0      19.882500000000004                 12.6525
   135   1      1.8075000000000001      18.075000000000003                 12.6525
   136   1      1.8075000000000001      19.882500000000004      10.845000000000001
   137   1                       0      18.075000000000003      14.460000000000001
   138   1                       0      19.882500000000004      16.267500000000002
   139   1      1.8075000000000001      18.075000000000003      16.267500000000002
   140   1      1.8075000000000001      19.882500000000004      14.460000000000001
   141   1                       0      18.075000000000003      18.075000000000003
   142   1                       0      19.882500000000004      19.882500000000004
   143   1      1.8075000000000001      18.075000000000003      19.882500000000004
   144   1      1.8075000000000001      19.882500000000004      18.075000000000003
   145   1      3.6150000000000002                       0                       0
   146   1      3.6150000000000002      1.8075000000000001      1.8075000000000001
   147   1      5.4225000000000003                       0      1.8075000000000001
   148   1      5.4225000000000003      1.8075000000000001                       0
   149   1      3.6150000000000002                       0      3.6150000000000002
   150   1      3.6150000000000002      1.8075000000000001      5.4225000000000003
   151   1      5.4225000000000003                       0      5.4225000000000003
   152   1      5.4225000000000003      1.8075000000000001      3.6150000000000002
   153   1      3.6150000000000002                       0      7.2300000000000004
   154   1      3.6150000000000002      1.8075000000000001      9.0375000000000014
   155   1      5.4225000000000003                       0      9.0375000000000014
   156   1      5.4225000000000003      1.8075000000000001      7.2300000000000004
   157   1      3.6150000000000002                       0      10.845000000000001
   158   1      3.6150000000000002      1.8075000000000001                 12.6525
   159   1      5.4225000000000003                       0                 12.6525
   160   1      5.4225000000000003      1.8075000000000001      10.845000000000001
   161   1      3.6150000000000002                       0      14.460000000000001
   162   1      3.6150000000000002      1.8075000000000001      16.267500000000002
   163   1      5.4225000000000003                       0      16.267500000000002
   164   1      5.4225000000000003      1.8075000000000001      14.460000000000001
   165   1      3.6150000000000002                       0      18.075000000000003
   166   1      3.6150000000000002      1.8075000000000001      19.882500000000004
   167   1      5.4225000000000003                       0      19.882500000000004
   168   1      5.4225000000000003      1.8075000000000001      18.075000000000003
   169   1      3.6150000000000002      3.6150000000000002                       0
   170   1      3.6150000000000002      5.4225000000000003      1.8075000000000001
   171   1      5.4225000000000003      3.6150000000000002      1.8075000000000001
   172   1      5.4225000000000003      5.4225000000000003                       0
   173   1      3.6150000000000002      3.6150000000000002      3.6150000000000002
   174   1      3.6150000000000002      5.4225000000000003      5.4225000000000003
   175   1      5.4225000000000003      3.6150000000000002      5.4225000000000003
   176   1      5.4225000000000003      5.4225000000000003      3.6150000000000002
   177   1      3.6150000000000002      3.6150000000000002      7.2300000000000004
   178   1      3.6150000000000002      5.4225000000000003      9.0375000000000014
   179   1      5.4225000000000003      3.6150000000000002      9.0375000000000014
   180   1      5.4225000000000003      5.4225000000000003      7.2300000000000004
   181   1      3.6150000000000002      3.6150000000000002      10.845000000000001
   182   1      3.6150000000000002      5.4225000000000003                 12.6525
   183   1      5.4225000000000003      3.6150000000000002                 12.6525
   184   1      5.4225000000000003      5.4225000000000003      10.845000000000001
   185   1      3.6150000000000002      3.6150000000000002      14.460000000000001
   186   1      3.6150000000000002      5.4225000000000003      16.267500000000002
   187   1      5.4225000000000003      3.6150000000000002      16.267500000000002
   188   1      5.4225000000000003      5.4225000000000003      14.460000000000001
   189   1      3.6150000000000002      3.6150000000000002      18.075000000000003
   190   1      3.6150000000000002      5.4225000000000003      19.882500000000004
   191   1      5.4225000000000003      3.6150000000000002      19.882500000000004
   192   1      5.4225000000000003      5.4225000000000003      18.075000000000003
   193   1      3.6150000000000002      7.2300000000000004                       0
   194   1      3.6150000000000002      9.0375000000000014      1.8075000000000001
   195   1      5.4225000000000003      7.2300000000000004      1.8075000000000001
   196   1      5.4225000000000003      9.0375000000000014                       0
   197   1      3.6150000000000002      7.2300000000000004      3.6150000000000002
   198   1      3.6150000000000002      9.0375000000000014      5.4225000000000003
   199   1      5.4225000000000003      7.2300000000000004      5.4225000000000003
   200   1      5.4225000000000003      9.0375000000000014      3.6150000000000002
   201   1      3.6150000000000002      7.2300000000000004      7.2300000000000004
   202   1      3.6150000000000002      9.0375000000000014      9.0375000000000014
   203   1      5.4225000000000003      7.2300000000000004      9.0375000000000014
   204   1      5.4225000000000003      9.0375000000000014      7.2300000000000004
   205   1      3.6150000000000002      7.2300000000000004      10.845000000000001
   206   1      3.6150000000000002      9.0375000000000014                 12.6525
   207   1      5.4225000000000003      7.2300000000000004                 12.6525
   208   1      5.4225000000000003      9.0375000000000014      10.845000000000001
   209   1      3.6150000000000002      7.2300000000000004      14.460000000000001
   210   1      3.6150000000000002      9.0375000000000014      16.267500000000002
   211   1      5.4225000000000003      7.2300000000000004      16.267500000000002
   212   1      5.4225000000000003      9.0375000000000014      14.460000000000001
   213   1      3.6150000000000002      7.2300000000000004      18.075000000000003
   214   1      3.6150000000000002      9.0375000000000014      19.882500000000004
   215   1      5.4225000000000003      7.2300000000000004      19.882500000000004
   216   1      5.4225000000000003      9.0375000000000014      18.075000000000003
   217   1      3.6150000000000002      10.845000000000001                       0
   218   1      3.6150000000000002                 12.6525      1.8075000000000001
   219   1      5.4225000000000003      10.845000000000001      1.8075000000000001
   220   1      5.4225000000000003                 12.6525                       0
   221   1      3.6150000000000002      10.845000000000001      3.6150000000000002
   222   1      3.6150000000000002                 12.6525      5.4225000000000003
   223   1      5.4225000000000003      10.845000000000001      5.4225000000000003
   224   1      5.4225000000000003                 12.6525      3.6150000000000002
   225   1      3.6150000000000002      10.845000000000001      7.2300000000000004
   226   1      3.6150000000000002                 12.6525      9.0375000000000014
   227   1      5.4225000000000003      10.845000000000001      9.0375000000000014
   228   1      5.4225000000000003                 12.6525      7.2300000000000004
   229   1      3.6150000000000002      10.845000000000001      10.845000000000001
   230   1      3.6150000000000002                 12.6525                 12.6525
   231   1      5.4225000000000003      10.845000000000001                 12.6525
   232   1      5.4225000000000003                 12.6525      10.845000000000001
   233   1      3.6150000000000002      10.845000000000001      14.460000000000001
   234   1      3.6150000000000002                 12.6525      16.267500000000002
   235   1      5.4225000000000003      10.845000000000001      16.267500000000002
   236   1      5.4225000000000003                 12.6525      14.460000000000001
   237   1      3.6150000000000002      10.845000000000001      18.075000000000003
   238   1      3.6150000000000002                 12.6525      19.882500000000004
   239   1      5.4225000000000003      10.845000000000001      19.882500000000004
   240   1      5.4225000000000003                 12.6525      18.075000000000003
   241   1      3.6150000000000002      14.460000000000001                       0
   242   1      3.6150000000000002      16.267500000000002      1.8075000000000001
   243   1      5.4225000000000003      14.460000000000001      1.8075000000000001
   244   1      5.4225000000000003      16.267500000000002                       0
   245   1      3.6150000000000002      14.460000000000001      3.6150000000000002
   246   1      3.6150000000000002      16.267500000000002      5.4225000000000003
   247   1      5.4225000000000003      14.460000000000001      5.4225000000000003
   248   1      5.4225000000000003      16.267500000000002      3.6150000000000002
   249   1      3.6150000000000002      14.460000000000001      7.2300000000000004
   250   1      3.6150000000000002      16.267500000000002      9.0375000000000014
   251   1      5.4225000000000003      14.460000000000001      9.0375000000000014
   252   1      5.4225000000000003      16.267500000000002      7.2300000000000004
   253   1      3.6150000000000002      14.460000000000001      10.845000000000001
   254   1      3.6150000000000002      16.267500000000002                 12.6525
   255   1      5.4225000000000003      14.460000000000001                 12.6525
   256   1      5.4225000000000003      16.267500000000002      10.845000000000001
   257   1      3.6150000000000002      14.460000000000001      14.460000000000001
   258   1      3.6150000000000002      16.267500000000002      16.267500000000002
   259   1      5.4225000000000003      14.460000000000001      16.267500000000002
   260   1      5.4225000000000003      16.267500000000002      14.460000000000001
   261   1      3.6150000000000002      14.460000000000001      18.075000000000003
   262   1      3.6150000000000002      16.267500000000002      19.882500000000004
   263   1      5.4225000000000003      14.460000000000001      19.882500000000004
   264   1      5.4225000000000003      16.267500000000002      18.075000000000003
   265   1      3.6150000000000002      18.075000000000003                       0
   266   1      3.6150000000000002      19.882500000000004      1.8075000000000001
   267   1      5.4225000000000003      18.075000000000003      1.8075000000000001
   268   1      5.4225000000000003      19.882500000000004                       0
   269   1      3.6150000000000002      18.075000000000003      3.6150000000000002
   270   1      3.6150000000000002      19.882500000000004      5.4225000000000003
   271   1      5.4225000000000003      18.075000000000003      5.4225000000000003
   272   1      5.4225000000000003      19.882500000000004      3.6150000000000002
   273   1      3.6150000000000002      18.075000000000003      7.2300000000000004
   274   1      3.6150000000000002      19.882500000000004      9.0375000000000014
   275   1      5.4225000000000003      18.075000000000003      9.0375000000000014
   276   1      5.4225000000000003      19.882500000000004      7.2300000000000004
   277   1      3.6150000000000002      18.075000000000003      10.845000000000001
   278   1      3.6150000000000002      19.882500000000004                 12.6525
   279   1      5.4225000000000003      18.075000000000003                 12.6525
   280   1      5.4225000000000003      19.882500000000004      10.845000000000001
   281   1      3.6150000000000002      18.075000000000003      14.460000000000001
   282   1      3.6150000000000002      19.882500000000004      16.267500000000002
   283   1      5.4225000000000003      18.075000000000003      16.267500000000002
   284   1      5.4225000000000003      19.882500000000004      14.460000000000001
   285   1      3.6150000000000002      18.075000000000003      18.075000000000003
   286   1      3.6150000000000002      19.882500000000004      19.882500000000004
   287   1      5.4225000000000003      18.075000000000003      19.882500000000004
   288   1      5.4225000000000003      19.882500000000004      18.075000000000003
   289   1      7.2300000000000004                       0                       0
   290   1      7.2300000000000004      1.8075000000000001      1.8075000000000001
   291   1      9.0375000000000014                       0      1.8075000000000001
   292   1      9.0375000000000014      1.8075000000000001                       0
   293   1      7.2300000000000004                       0      3.6150000000000002
   294   1      7.2300000000000004      1.8075000000000001      5.4225000000000003
   295   1      9.0375000000000014                       0      5.4225000000000003
   296   1      9.0375000000000014      1.8075000000000001      3.6150000000000002
   297   1      7.2300000000000004                       0      7.2300000000000004
   298   1      7.2300000000000004      1.8075000000000001      9.0375000000000014
   299   1      9.0375000000000014                       0      9.0375000000000014
   300   1      9.0375000000000014      1.8075000000000001      7.2300000000000004
   301   1      7.2300000000000004                       0      10.845000000000001
   302   1      7.2300000000000004      1.8075000000000001                 12.6525
   303   1      9.0375000000000014                       0                 12.6525
   304   1      9.0375000000000014      1.8075000000000001      10.845000000000001
   305   1      7.2300000000000004                       0      14.460000000000001
   306   1      7.2300000000000004      1.8075000000000001      16.267500000000002
   307   1      9.0375000000000014                       0      16.267500000000002
   308   1      9.0375000000000014      1.8075000000000001      14.460000000000001
   309   1      7.2300000000000004                       0      18.075000000000003
   310   1      7.2300000000000004      1.8075000000000001      19.882500000000004
   311   1      9.0375000000000014                       0      19.882500000000004
   312   1      9.0375000000000014      1.8075000000000001      18.075000000000003
   313   1      7.2300000000000004      3.6150000000000002                       0
   314   1      7.2300000000000004      5.4225000000000003      1.8075000000000001
   315   1      9.0375000000000014      3.6150000000000002      1.8075000000000001
   316   1      9.0375000000000014      5.4225000000000003                       0
   317   1      7.2300000000000004      3.6150000000000002      3.6150000000000002
   318   1      7.2300000000000004      5.4225000000000003      5.4225000000000003
   319   1      9.0375000000000014      3.6150000000000002      5.4225000000000003
   320   1      9.0375000000000014      5.4225000000000003      3.6150000000000002
   321   1      7.2300000000000004      3.6150000000000002      7.2300000000000004
   322   1      7.2300000000000004      5.4225000000000003      9.0375000000000014
   323   1      9.0375000000000014      3.6150000000000002      9.0375000000000014
   324   1      9.0375000000000014      5.4225000000000003      7.2300000000000004
   325   1      7.2300000000000004      3.6150000000000002      10.845000000000001
   326   1      7.2300000000000004      5.4225000000000003                 12.6525
   327   1      9.0375000000000014      3.6150000000000002                 12.6525
   328   1      9.0375000000000014      5.4225000000000003      10.845000000000001
   329   1      7.2300000000000004      3.6150000000000002      14.460000000000001
   330   1      7.2300000000000004      5.4225000000000003      16.267500000000002
   331   1      9.0375000000000014      3.6150000000000002      16.267500000000002
   332   1      9.0375000000000014      5.4225000000000003      14.460000000000001
   333   1      7.2300000000000004      3.6150000000000002      18.075000000000003
   334   1      7.2300000000000004      5.4225000000000003      19.882500000000004
   335   1      9.0375000000000014      3.6150000000000002      19.882500000000004
   336   1      9.0375000000000014      5.4225000000000003      18.075000000000003
   337   1      7.2300000000000004      7.2300000000000004                       0
   338   1      7.2300000000000004      9.0375000000000014      1.8075000000000001
   339   1      9.0375000000000014      7.2300000000000004      1.8075000000000001
   340   1      9.0375000000000014      9.0375000000000014                       0
   341   1      7.2300000000000004      7.2300000000000004      3.6150000000000002
   342   1      7.2300000000000004      9.0375000000000014      5.4225000000000003
   343   1      9.0375000000000014      7.2300000000000004      5.4225000000000003
   344   1      9.0375000000000014      9.0375000000000014      3.6150000000000002
   345   1      7.2300000000000004      7.2300000000000004      7.2300000000000004
   346   1      7.2300000000000004      9.0375000000000014      9.0375000000000014
   347   1      9.0375000000000014      7.2300000000000004      9.0375000000000014
   348   1      9.0375000000000014      9.0375000000000014      7.2300000000000004
   349   1      7.2300000000000004      7.2300000000000004      10.845000000000001
   350   1      7.2300000000000004      9.0375000000000014                 12.6525
   351   1      9.0375000000000014      7.2300000000000004                 12.6525
   352   1      9.0375000000000014      9.0375000000000014      10.845000000000001
   353   1      7.2300000000000004      7.2300000000000004      14.460000000000001
   354   1      7.2300000000000004      9.0375000000000014      16.267500000000002
   355   1      9.0375000000000014      7.2300000000000004      16.267500000000002
   356   1      9.0375000000000014      9.0375000000000014      14.460000000000001
   357   1      7.2300000000000004      7.2300000000000004      18.075000000000003
   358   1      7.2300000000000004      9.0375000000000014      19.882500000000004
   359   1      9.0375000000000014      7.2300000000000004      19.882500000000004