LAMMPS (10 Dec 2025)
OMP_NUM_THREADS environment is not set. Defaulting to 1 thread.
  using 1 OpenMP thread(s) per MPI task
Reading data file ...
  orthogonal box = (0 0 0) to (21.69 21.69 21.69)
  1 by 1 by 1 MPI processor grid
  reading atoms ...
  864 atoms
  read_data CPU = 0.005 seconds
Changing box ...
  triclinic box = (0 0 0) to (21.69 21.69 21.69) with tilt (0 0 0)
Reading eam/alloy potential file /mnt/c/Users/iwash/Documents/Repositories/Simulation/potentials/Cu_zhou.eam.alloy with DATE: 2007-10-12
=== Phase 1: 0K Relaxation ===
Switching to 'neigh_modify every 1 delay 0 check yes' setting during minimization
Neighbor list info ...
  update: every = 1 steps, delay = 0 steps, check = yes
  max neighbors/atom: 2000, page size: 100000
  master list distance cutoff = 11.0375
  ghost atom cutoff = 11.0375
  binsize = 5.51875, bins = 4 4 4
  1 neighbor lists, perpetual/occasional/extra = 1 0 0
  (1) pair eam/alloy, perpetual
      attributes: half, newton on
      pair build: half/bin/atomonly/newton/tri
      stencil: half/bin/3d/tri
      bin: standard
Setting up cg style minimization ...
  Unit style    : metal
  Current step  : 0
WARNING: Energy due to 3 extra global DOFs will be included in minimizer energies
 (src/min.cpp:222)
Per MPI rank memory allocation (min/avg/max) = 5.553 | 5.553 | 5.553 Mbytes
   Step          Temp          PotEng         Press           Pxx            Pyy            Pzz             Lx             Ly             Lz      
         0   0             -3058.3901     -214.13474     -214.13474     -214.13474     -214.13474      21.69          21.69          21.69        
         2   0             -3058.3903     -0.0052365606  -0.0052365605  -0.0052365606  -0.0052365606   21.68888       21.68888       21.68888     
Loop time of 0.0199038 on 1 procs for 2 steps with 864 atoms

110.0% CPU use with 1 MPI tasks x 1 OpenMP threads

Minimization stats:
  Stopping criterion = energy tolerance
  Energy initial, next-to-last, final = 
     -3058.39014912524  -3058.39025482403  -3058.39025482061
  Force two-norm initial, final = 2.3621967 5.7760399e-05
  Force max component initial, final = 1.3638149 3.3347982e-05
  Final line search alpha, max atom move = 0.15220981 5.07589e-06
  Iterations, force evaluations = 2 4

MPI task timing breakdown:
Section |  min time  |  avg time  |  max time  |%varavg| %total
---------------------------------------------------------------
Pair    | 0.019538   | 0.019538   | 0.019538   |   0.0 | 98.16
Neigh   | 0          | 0          | 0          |   0.0 |  0.00
Comm    | 7.7104e-05 | 7.7104e-05 | 7.7104e-05 |   0.0 |  0.39
Output  | 0          | 0          | 0          |   0.0 |  0.00
Modify  | 0          | 0          | 0          |   0.0 |  0.00
Other   |            | 0.0002884  |            |       |  1.45

Nlocal:            864 ave         864 max         864 min
Histogram: 1 0 0 0 0 0 0 0 0 0
Nghost:           6949 ave        6949 max        6949 min
Histogram: 1 0 0 0 0 0 0 0 0 0
Neighs:         197856 ave      197856 max      197856 min
Histogram: 1 0 0 0 0 0 0 0 0 0

Total # of neighbors = 197856
Ave neighs/atom = 229
Neighbor list builds = 0
Dangerous builds = 0
=== Phase 2: Equilibration at 300.0K ===
Setting up Verlet run ...
  Unit style    : metal
  Current step  : 0
  Time step     : 0.002
Per MPI rank memory allocation (min/avg/max) = 4.444 | 4.444 | 4.444 Mbytes
   Step          Temp          PotEng         Press           Pxx            Pyy            Pzz             Lx             Ly             Lz      
         0   300           -3058.39unfix relax

print '=== Phase 2: Equilibration at 300.0K ==='
=== Phase 2: Equilibration at 300.0K ===
reset_timestep 0
velocity all create 300.0 98318 dist gaussian
fix eq all npt temp 300.0 300.0 0.1 tri 0.0 0.0 1.0
run 2500
Per MPI rank memory allocation (min/avg/max) = 4.444 | 4.444 | 4.444 Mbytes
   Step          Temp          PotEng         Press           Pxx            Pyy            Pzz             Lx             Ly             Lz      
         0   300           -3058.3903      3503.5135      3502.3781      3240.8319      3767.31863    
       400   322.361       -3022.456      -3151.9333     -2340.0792     -3321.5026     -3794.2182      21.733474      21.790338      21.783828    
       500   262.69727     -3022.7505     -5688.1594     -7781.3399     -4676.8019     -4606.3365      21.848078      21.744676      21.744819    
       600   300.04525     -3023.9411     -8831.498      -7245.7927     -9717.2088     -9531.4925      21.74346       21.836986      21.816132    
       700   279.74412     -3019.859      -8508.4046     -9142.0956     -8564.2963     -7818.8219      21.823916      21.806484      21.775088    
       800   287.73384     -3022.9103     -7332.7477     -7522.1892     -6450.6118     -8025.4423      21.80015       21.768139      21.804106    
       900   280.91717     -3023.835      -4019.7141     -2848.6523     -5176.8822     -4033.6078      21.727794      21.80273       21.781933    
      1000   303.65703     -3022.6126     -1244.2605     -1839.2663     -1265.1015     -628.41361      21.800453      21.732679      21.737667    
      1100   311.95006     -3024.6802      698.59633      1396.0186      764.1141      -64.343738      21.722004      21.744248      21.770053    
      1200   320.81951     -3027.5207      2177.1649      1963.0411      1755.8051      2812.6485      21.74807       21.736543      21.713041    
      1300   298.90442     -3023.2665      3916.4704      3782.4224      4455.1331      3511.8558      21.720183      21.720446      21.740153    
      1400   320.07088     -3024.5384      4184.0475      4097.6004      3562.8894      4891.6528      21.714498      21.731562      21.729474    
      1500   280.75142     -3023.3725      4823.3177      4729.8717      4061.3323      5678.7492      21.735839      21.732973      21.691717    
      1600   302.51962     -3023.9308      4292.8432      4614.5956      5108.4661      3155.4678      21.721315      21.69617       21.759736    
      1700   305.08737     -3023.1575      2600.8467      2500.7987      1953.3348      3348.4067      21.726434      21.760986      21.720495    
      1800   297.94051     -3024.5589      111.15192     -666.85189      1017.0769     -16.769275      21.771459      21.724893      21.745146    
      1900   282.94509     -3023.8489     -2599.2173     -1524.2976     -3643.3645     -2629.9899      21.745461      21.770275      21.769082    
      2000   298.19851     -3023.0427     -5424.0639     -5827.5723     -5663.5933     -4781.0262      21.805021      21.77238       21.758259    
      2100   295.08451     -3024.2099     -6804.8252     -6424.1557     -7135.206      -6855.1139      21.77642       21.792712      21.788821    
      2200   306.49066     -3023.2579     -7131.2484     -6993.2473     -7184.9711     -7215.5269      21.779968      21.794725      21.796575    
      2300   291.21535     -3023.2193     -6067.9419     -7815.0132     -5545.1643     -4843.6483      21.844647      21.752912      21.7498      
      2400   300.21955     -3025.1146     -4898.4949     -3290.8699     -5889.2552     -5515.3596      21.720743      21.79845       21.797013    
      2500   298.07399     -3023.2887     -1609.8292     -2421.1213     -1389.9128     -1018.4534      21.788214      21.741428      21.738905    
Loop time of 10.368 on 1 procs for 2500 steps with 864 atoms

Performance: 41.667 ns/day, 0.576 hours/ns, 241.126 timesteps/s, 208.333 katom-step/s
109.1% CPU use with 1 MPI tasks x 1 OpenMP threads

MPI task timing breakdown:
Section |  min time  |  avg time  |  max time  |%varavg| %total
------------------21.79845       21.797013    
      2500   298.07399     -3023.2887     -1609.8292     -2421.1213     -1389.9128     -1018.4534      21.788214      21.741428      21.738905    
Loop time of 10.368 on 1 procs for 2500 steps with 864 atoms

Performance: 41.667 ns/day, 0.576 hours/ns, 241.126 timesteps/s, 208.333 katom-step/s
109.1% CPU use with 1 MPI tasks x 1 OpenMP threads

MPI task timing breakdown:
Section |  min time  |  avg time  |  max time  |%varavg| %total
---------------------------------------------------------------
Pair    | 10.     6949 max        6949 min
Histogram: 1 0 0 0 0 0 0 0 0 0
Neighs:         197856 ave      197856 max      197856 min
Histogram: 1 0 0 0 0 0 0 0 0 0

Total # of neighbors = 197856
Ave neighs/atom = 229
Neighbor list builds = 0
Dangerous builds = 0
=== Phase 3: Tension ===
Neighbor list info ...
  update: every = 1 steps, delay = 10 steps, check = yes
  max neighbors/atom: 2000, page size: 100000
  master list distance cutoff = 11.0375
  ghost atom cutoff = 11.0375
  binsize = 5.51875, bins = 4 4 4
  3 neighbor lists, perpetual/occasional/extra = 1 2 0
  (1) pair eam/alloy, perpetual
      attributes: half, newton on
      pair build: half/bin/atomonly/newton/tri
      stencil: half/bin/3d/tri
      bin: standard
  (2) compute cna/atom, occasional
      attributes: full, newton on
      pair build: full/bin/atomonly
      stencil: full/bin/3d
      bin: standard
  (3) compute centro/atom, occasional
      attributes: full, newton on
      pair build: full/bin/atomonly
      stencil: full/bin/3d
      bin: standard
Setting up Verlet run ...
  Unit style    : metal
  Current step  : 0
  Time step     : 0.002
Per MPI rank memory allocation (min/avg/max) = 6.456 | 6.456 | 6.456 Mbytes
   Step          Temp         v_strain       v_stress    v_stress_drop  v_drop_from_peak      Pxx            Pyy            Pzz             Lx             Ly             Lz      
         0   298.07399     -2.1245448e-15  0.10184534     1.6653345e-16  0             -2421.1213     -1389.9128     -1018.4534      21.788214      21.741428      21.738905    
       100   298.71358      0.0002         0.12423725    -0.011195957    0             -2043.1983     -2424.2667     -1242.3725      21.752902      21.781636      21.743253    
       200   290.56903      0.0004         0.054180207    0.039240725    0.070057045   -1760.1049     -1326.8262     -541.80207      21.764461      21.746282      21.7476      
       300   316.05254      0.0006        -0.0086112463   0.076524134    0.1328485     -347.05675     -150.95441      86.112463      21.739553      21.753283      21.751948    
       400   300.46277      0.0008        -0.24723793     0.25212065     0.37147518     4746.538       1122.3769      2472.3793      21.673792      21.769325      21.756296    
       500   314.96853      0.001         -0.39222473     0.33092288     0.51646198     3367.6007      6268.1432      3922.2473      21.753653      21.647697      21.760644    
       600   303.20048      0.0012        -0.37878492     0.27212835     0.50302218     7157.1816      3428.0711      3787.8492      21.632682      21.773986      21.764991    
       700   295.40707      0.0014        -0.083810704   -0.019990138    0.20804796     1081.3332      3094.8966      838.10704      21.753607      21.691431      21.769339    
       800   291.76846      0.0016         0.17183362    -0.24500841     0             -1050.6929     -2121.7021     -1718.3362      21.739274      21.760567      21.773687    
       900   294.55537      0.0018         0.39389437    -0.42036225     0             -4435.3372     -5143.7371     -3938.9437      21.75885       21.794055      21.778035    
      1000   303.17228      0.002          0.50285169    -0.48921893     0             -5096.4877     -4372.5355     -5028.5169      21.785888      21.757821      21.782383    
      1100   303.22688      0.0022         0.37417903    -0.33555209     0.12867266    -2841.9729     -3790.3639     -3741.7903      21.718113      21.795893      21.78673     
      1200   289.41479      0.0024         0.20946175    -0.15530665     0.29338994    -1494.9683     -287.24424     -2094.6175      21.745265      21.750013      21.791078    
      1300   315.55818      0.0026         0.10809924    -0.042273103    0.39475245     673.61346      277.76046     -1080.9924      21.730585      21.723407      21.795426    
      1400   302.58642      0.0028        -0.031308662    0.11872773     0.53416035     2645.1131      2181.0189      313.08662      21.692356      21.726221      21.799774    
      1500   306.39619      0.003         -0.054315157    0.17552518     0.55716685     2846.3202      4549.7218      543.15157      21.716213      21.678891      21.804122    
      1600   292.92442      0.0032        -0.10254974     0.25138328     0.60540143     3495.0922      3062.4286      1025.4974      21.687135      21.714842      21.808469    
      1700   304.05764      0.0034         0.12553186     0.044235941    0.37731983     2167.8511      2243.3546     -1255.3186      21.702876      21.70968       21.812817    
      1800   293.32446      0.0036         0.33477949    -0.14871711     0.1680722     -1291.2181     -680.68408     -3347.7949      21.733784      21.723401      21.817165    
      1900   309.62395      0.0038         0.55407345    -0.35199315     0             -2787.8495     -3577.4994     -5540.7345      21.739138      21.758677      21.821513    
      2000   296.05325      0.004          0.57093597    -0.36204725     0             -4412.256      -4013.9866     -5709.3597      21.749602      21.748439      21.82586     
      2100   307.53981      0.0042         0.54730826    -0.32110661     0.023627712   -3912.6699     -2439.1957     -5473.0826      21.749096      21.731515      21.830208    
      2200   309.63691      0.0044         0.41067636    -0.16435325     0.16025961    -1499.8891     -2567.863      -4106.7636      21.704102      21.750392      21.834556    
      2300   289.16397      0.0046         0.21771137     0.039572955    0.35322461     195.61523      165.75376     -2177.1137      21.702705      21.707907      21.838904    
      2400   302.48919      0.0048         0.18030463     0.098141023    0.39063135     3268.7288      1789.7975     -1803.0463      21.684434      21.699551      21.843252    
      2500   308.16114      0.005          0.084519255    0.20780984     0.48641672     3081.5445      3831.6671     -845.19255      21.692809      21.674368      21.847599    
      2600   305.32892      0.0052         0.12032313     0.19429325     0.45061285     2897.5843      3133.872      -1203.2313      21.683494      21.68184       21.851947    
      2700   285.87624      0.0054         0.22115231     0.10302611     0.34978366     2020.0128      2046.7925     -2211.5231      21.696738      21.683195      21.856295    
      2800   296.7885       0.0056         0.37084542    -0.043060401    0.20009056    -843.69145      231.65986     -3708.4542      21.714569      21.6987        21.860643    
      2900   297.90291      0.0058         0.55295628    -0.22528298     0.017979691   -569.14679     -1204.9588     -5529.5628      21.708589      21.714057      21.86499     
      3000   299.89185      0.006          0.57866034    -0.2502146      0             -1483.6787     -545.61018     -5786.6034      21.717871      21.70544       21.869338    
      3100   304.40643      0.0062         0.54421065    -0.21607468     0.034449685   -1642.3599     -1664.9424     -5442.1065      21.703116      21.720065      21.873686    
      3200   293.61766      0.0064         0.49574686    -0.15910383     0.08291348    -432.3463      -936.55806     -4957.4686      21.707441      21.693452      21.878034    
      3300   290.61274      0.0066         0.44809097    -0.08840999     0.13056936     310.13631      839.85607     -4480.9097      21.705138      21.675443      21.882382    
      3400   315.35404      0.0068         0.46097745    -0.073229187    0.11768288     1122.2211     -529.52166     -4609.7745      21.66705       21.713409      21.886729    
      3500   296.82479      0.007          0.39643159     0.022507913    0.18222875     949.33839      592.6244      -3964.3159      21.696421      21.67127       21.891077    
      3600   294.67978      0.0072         0.57533862    -0.11089757     0.00332172    -42.092451     -676.04122     -5753.3862      21.66741       21.699406      21.895425    
      3700   295.51761      0.0074         0.60896235    -0.10574029     0             -1532.6007     -1467.9156     -6089.6235      21.689104      21.702222      21.899773    
      3800   305.90705      0.0076         0.74680376    -0.20598588     0             -3147.9293     -1929.8272     -7468.0376      21.736367      21.678424      21.90412     
      3900   280.29544      0.0078         0.77485845    -0.21185034     0             -1620.3883     -3311.0933     -7748.5845      21.67437       21.741825      21.908468    
      4000   283.34242      0.008          0.73440493    -0.15582236     0.040453519   -2485.2148     -1226.8906     -7344.0493      21.732343      21.658122      21.912816    
      4100   289.61308      0.0082         0.57739967     0.0045017903   0.19745877     289.40814     -307.54506     -5773.9967      21.675818      21.687728      21.917164    
      4200   313.07899      0.0084         0.5385487      0.047632945    0.23630974     1861.8417      739.87531     -5385.487       21.635887      21.704764      21.921512    
      4300   284.55666      0.0086         0.40123167     0.18026404     0.37362677     2022.8237      3868.5071     -4012.3167      21.683303      21.624759      21.925859    
      4400   305.00557      0.0088         0.45524019     0.1256818      0.31961825     3709.6484      1643.8615     -4552.4019      21.621599      21.690636      21.930207    
      4500   310.06696      0.009          0.5859662      0.013909258    0.18889225     1627.2787      1536.0138     -5859.662       21.668634      21.661812      21.934555    
      4600   290.78146      0.0092         0.75035876    -0.13298129     0.024499684   -555.54531     -93.75642      -7503.5876      21.696071      21.656478      21.938903    
      4700   292.9227       0.0094         0.94654832    -0.29541225     0             -976.96642     -3135.5768     -9465.4832      21.634338      21.73793       21.943251    
      4800   307.36995      0.0096         0.94304467    -0.27228452     0.0035036444  -3850.3222     -1953.5471     -9430.4467      21.745051      21.641855      21.947598    
      4900   302.98537      0.0098         0.83218334    -0.15569069     0.11436498    -1776.3979     -2380.5509     -8321.8334      21.667832      21.698363      21.951946    
      5000   293.18532      0.01           0.73794603    -0.061099277    0.20860229     378.68674     -871.1257      -7379.4603      21.626891      21.700799      21.956294    
      5100   306.42732      0.0102         0.73154711    -0.039285612    0.21500121     220.86096      3324.6031     -7315.4711      21.719397      21.588485      21.960642    
      5200   288.89579      0.0104         0.50311527     0.18560289     0.44343305     4646.6587      1434.8054     -5031.1527      21.581198      21.699348      21.964989    
      5300   295.40448      0.0106         0.51899992     0.18149506     0.4275484      1608.1579      3642.2776     -5189.9992      21.666951      21.605797      21.969337    
      5400   314.48388      0.0108         0.68753861     0.03618621     0.2590097      1019.2951      1747.3328     -6875.3861      21.659543      21.64226       21.973685    
      5500   302.13152      0.011          0.89754562    -0.14266285     0.049002699    857.73793     -1664.1444     -8975.4562      21.612441      21.709523      21.978033    
      5600   304.8577       0.0112         1.0013488     -0.22136706     0             -4541.6123     -656.88145     -10013.488      21.757087      21.587115      21.982381    
      5700   299.95384      0.0114         1.1006523     -0.30526017     0             -1254.5467     -4140.6506     -11006.523      21.631915      21.721993      21.986728    
      5800   307.65017      0.0116         1.0234975     -0.22006005     0.077154832   -2695.4865     -2243.4865     -10234.975      21.681066      21.672262      21.991076    
      5900   304.24225      0.0118         0.99024278    -0.17099937     0.11040957    -2562.5172     -1292.7901     -9902.4278      21.705989      21.626142      21.995424    
      6000   303.3807       0.012          0.94681103    -0.10668112     0.15384132     40.561589     -1380.4437     -9468.1103      21.620464      21.682922      21.999772    
      6100   311.11973      0.0122         0.85204678     0.00013308701  0.24860556     835.89072      1717.5426     -8520.4678      21.669519      21.612641      22.004119    
      6200   307.49093      0.0124         0.83432141     0.050979071    0.26633093     1806.2293      2058.1413     -8343.2141      21.641279      21.633839      22.008467    
      6300   287.56079      0.0126         0.81640808     0.098633217    0.28424426     3382.0076      2145.3963     -8164.0808      21.612303      21.638577      22.012815    
      6400   302.85757      0.0128         0.82246794     0.10606629     0.2781844      1559.6724      2425.7227     -8224.6794      21.665534      21.593965      22.017163    
      6500   317.52218      0.013          0.88147849     0.045449027    0.21917385     1125.2445      879.14878     -8814.7849      21.621292      21.649119      22.021511    
      6600   296.05273      0.0132         1.0167654     -0.088296263    0.083886898    156.12948     -783.76531     -10167.654      21.634105      21.649322      22.025858    
      6700   289.86687      0.0134         1.1894823     -0.25213015     0             -1546.7424     -1419.1939     -11894.823      21.695666      21.605089      22.030206    
      6800   303.34986      0.0136         1.3758446     -0.40325775     0             -2397.1868     -4957.754      -13758.446      21.621643      21.709394      22.034554    
      6900   304.17095      0.0138         1.3170123     -0.31174846     0.058832342   -3583.1136     -3775.2485     -13170.123      21.683063      21.649922      22.038902    
      7000   286.011        0.014          1.2659465     -0.22876911     0.10989814    -3429.6096     -556.70824     -12659.465      21.709606      21.588711      22.043249    
      7100   306.94448      0.0142         1.0277664      0.026982915    0.3480782      1761.1206     -1933.2247     -10277.664      21.562544      21.701696      22.047597    
      7200   302.39286      0.0144         0.90916079     0.15307251     0.46668386     687.57087      3915.4872     -9091.6079      21.691259      21.535184      22.051945    
      7300   294.47812      0.0146         0.93160776     0.1421455      0.44423688     3132.631       2534.1809     -9316.0776      21.599492      21.612883      22.056293    
      7400   288.20782      0.0148         0.93305703     0.15175514     0.44278761     4008.1597      1026.2956     -9330.5703      21.572785      21.643364      22.060641    
      7500   306.48109      0.015          1.0859705      0.019290839    0.28987411    -144.47784      3264.6287     -10859.705      21.690797      21.542871      22.064988    
      7600   299.3921       0.0152         1.1870198     -0.064732998    0.18882483     666.79781     -826.76326     -11870.198      21.584326      21.659755      22.069336    
      7700   303.39851      0.0154         1.292965      -0.16032987     0.082879695   -2143.9672     -1495.5014     -12929.65       21.646052      21.628484      22.073684    
      7800   311.18926      0.0156         1.4434815     -0.30408273     0             -3545.4222     -2171.0768     -14434.815      21.695165      21.608765      22.078032    
      7900   312.56373      0.0158         1.4882928     -0.33176602     0             -241.16619     -4607.6211     -14882.928      21.576941      21.704357      22.08238     
      8000   293.05753      0.016          1.2997843     -0.1398737      0.18850855    -2664.6205      720.06121     -12997.843      21.690409      21.554907      22.086727    
      8100   313.19906      0.0162         1.2488436     -0.066825271    0.23944926     1055.8651      1126.8774     -12488.436      21.604981      21.613446      22.091075    
      8200   306.42546      0.0164         1.0378768      0.15701311     0.45041604     5066.7885      1900.1788     -10378.768      21.532654      21.652873      22.095423    
      8300   291.18734      0.0166         1.0194836      0.18419391     0.46880926     2502.7158      6134.8702     -10194.836      21.671505      21.490196      22.099771    
      8400   314.25006      0.0168         1.1735924      0.054138601    0.31470041     3951.1275      1263.8627     -11735.924      21.527083      21.651147      22.104118    
      8500   304.79987      0.017          1.2409599      0.0022700741   0.24733295     1520.1092      1264.1779     -12409.599      21.604361      21.604005      22.108466    
      8600   292.61878      0.0172         1.4288206     -0.16141058     0.059472205   -1800.952       1466.7776     -14288.206      21.664255      21.559183      22.112814    
      8700   295.57016      0.0174         1.450812      -0.16761726     0.037480822   -433.42471     -2792.1747     -14508.12       21.563418      21.671059      22.117162    
      8800   305.87594      0.0176         1.5095381     -0.21973766     0             -3724.3425     -1384.8176     -15095.381      21.66859       21.580994      22.12151     
      8900   293.09234      0.0178         1.5877985     -0.28804748     0             -1927.2771     -2866.1329     -15877.985      21.608784      21.634172      22.125857    
      9000   296.59001      0.018          1.6019897     -0.27201816     0             -1252.8911     -2248.8273     -16019.897      21.586067      21.642595      22.130205    
      9100   312.22499      0.0182         1.4331327     -0.084732254    0.16885699    -1135.2156      457.70678     -14331.327      21.659444      21.546969      22.134553    
      9200   293.16358      0.0184         1.3550172      0.025097283    0.24697249     1918.7895      541.1752      -13550.172      21.547519      21.630562      22.138901    
      9300   296.21019      0.0186         1.3114423      0.097868048    0.29054739     2670.023       3697.0763     -13114.423      21.588082      21.547882      22.143248    
      9400   298.55113      0.0188         1.1605995      0.2474115      0.44139012     4494.4659      4482.1933     -11605.995      21.574776      21.534539      22.147596    
      9500   304.41904      0.019          1.1670745      0.23354797     0.43491513     4985.5622      2721.4227     -11670.745      21.505106      21.61948       22.151944    
      9600   301.02432      0.0192         1.4561567     -0.052800567    0.14583299     125.76338      1767.3542     -14561.567      21.63607       21.524943      22.156292    
      9700   292.33197      0.0194         1.745411      -0.31259503     0             -1364.3997     -2931.1213     -17454.11       21.573738      21.631071      22.16064     
      9800   299.8442       0.0196         1.9047968     -0.43245494     0             -4222.6882     -4414.266      -19047.968      21.606276      21.641495      22.164987    
      9900   300.94612      0.0198         1.9009901     -0.39732902     0.0038067528  -5135.6473     -3353.3102     -19009.901      21.678144      21.56177       22.169335    
     10000   295.31435      0.02           1.8120603     -0.28739219     0.092736521   -778.01468     -2953.2287     -18120.603      21.544225      21.648409      22.173683    
     10100   298.32759      0.0202         1.5709416     -0.032492572    0.33385525     992.69897      769.9294      -15709.416      21.563847      21.59822       22.178031    
     10200   291.32142      0.0204         1.4282658      0.11750805     0.47653101     2356.3781      2498.1069     -14282.658      21.58659       21.536603      22.182378    
     10300   305.29631      0.0206         1.4414767      0.11730064     0.46332016     3031.356       2340.8306     -14414.767      21.526819      21.580443      22.186726    
     10400   301.47276      0.0208         1.4889         0.10270734     0.41589681     639.0838       2244.3346     -14889          21.59141       21.545581      22.191074    
     10500   305.93535      0.021          1.7198423     -0.07295821     0.18495448     159.99522      396.61179     -17198.423      21.58782       21.559146      22.195422    
     10600   297.52877      0.0212         1.8048079     -0.12305861     0.099988964    56.005725     -2460.1063     -18048.079      21.550722      21.615336      22.19977     
     10700   297.10163      0.0214         1.8827687     -0.18728372     0.022028086   -3242.2782     -896.08961     -18827.687      21.632904      21.545695      22.204117    
     10800   303.77495      0.0216         1.9201476     -0.22312748     0             -1520.7555     -3174.8307     -19201.476      21.554378      21.62798       22.208465    
     10900   291.53412      0.0218         1.8768583     -0.18225141     0.043289243   -1779.3137     -1701.1893     -18768.583      21.564131      21.591686      22.212813    
     11000   305.4797       0.022          1.7290557     -0.042749214    0.1910919     -1005.5409      456.68542     -17290.557      21.619677      21.514969      22.217161    
     11100   293.92631      0.0222         1.6497773      0.044412756    0.2703703      3313.5428      652.41815     -16497.773      21.504652      21.602823      22.221508    
     11200   294.97939      0.0224         1.5956048      0.11531912     0.32454276     2843.2761      2401.4154     -15956.048      21.536702      21.55328       22.225856    
     11300   302.39572      0.0226         1.5718066      0.15215034     0.34834099     1670.9724      3912.9685     -15718.066      21.589343      21.490433      22.230204    
     11400   302.08531      0.0228         1.7443666      0.0051369545   0.17578095     2795.1951      722.21682     -17443.666      21.491511      21.605818      22.234552    
     11500   292.5148       0.023          1.880407      -0.11484693     0.039740598   -660.38136      475.53707     -18804.07       21.59084       21.532278      22.2389      
     11600   291.87342      0.0232         1.9758066     -0.19314668     0             -2506.6296     -1915.2051     -19758.066      21.587419      21.552111      22.243247    
     11700   303.47244      0.0234         2.0742076     -0.27240378     0             -2052.6491     -4130.3617     -20742.076      21.5292        21.62958       22.247595    
     11800   297.2731       0.0236         2.1448936     -0.32061517     0             -5139.381      -1660.3508     -21448.936      21.654701      21.505733      22.251943    
     11900   306.09442      0.0238         2.1571173     -0.30481296     0             -1387.2894     -3680.598      -21571.173      21.525396      21.61187       22.256291    
     12000   297.86292      0.024          1.9375587     -0.064404142    0.21955851     279.67795     -180.12618     -19375.587      21.543969      21.562525      22.260639    
     12100   307.18712      0.0242         1.7735285      0.11200126     0.38358879     824.2749       4261.1092     -17735.285      21.603493      21.454088      22.264986    
     12200   298.71359      0.0244         1.6747678      0.2186782      0.48234943     5417.4866      2391.7572     -16747.678      21.437479      21.588787      22.269334    
     12300   307.81893      0.0246         1.7079923      0.19907232     0.44912498     1757.4331      3194.2705     -17079.923      21.551082      21.499191      22.273682    
     12400   282.55095      0.0248         1.8693845      0.050181917    0.28773279     404.4111       2046.5526     -18693.845      21.585247      21.484458      22.27803     
     12500   300.12272      0.025          1.9991941     -0.06774901     0.15792315     258.72002     -1911.781      -19991.941      21.502419      21.590232      22.282377    
     12600   311.04823      0.0252         2.1354631     -0.18805237     0.021654138   -1953.0691     -1015.3862     -21354.631      21.585443      21.532574      22.286725    
     12700   318.46656      0.0254         2.2119463     -0.25076166     0             -1969.9551     -1982.059      -22119.463      21.561881      21.546779      22.291073    
     12800   306.25741      0.0256         2.1742663     -0.21014438     0.037680017   -1668.943      -1909.6021     -21742.663      21.522267      21.574277      22.295421    
     12900   292.72597      0.0258         2.1789959     -0.2126862      0.032950328   -1723.1101     -381.81159     -21789.959      21.579595      21.503029      22.299769    
     13000   301.86627      0.026          2.0555047     -0.077400339    0.15644159     96.883037      164.74012     -20555.047      21.538164      21.532771      22.304116    
     13100   301.54429      0.0262         1.9437481      0.051378201    0.26819817     2609.8938      744.21636     -19437.481      21.492093      21.539773      22.308464    
     13200   293.28112      0.0264         1.8716556      0.14315945     0.34029064     2917.0062      4348.6884     -18716.556      21.557337      21.447267      22.312812    
     13300   310.28796      0.0266         1.8686348      0.1622445      0.34331144     2934.0066      2755.8082     -18686.348      21.491041      21.520038      22.31716     
     13400   292.92776      0.0268         2.0423174      0.00585525     0.16962889     1340.3108      577.36269     -20423.174      21.49383       21.540361      22.321507    
     13500   297.87024      0.027          2.3715327     -0.2861262      0             -3672.6977     -1550.3946     -23715.327      21.608208      21.477942      22.325855    
     13600   310.72373      0.0272         2.6209848     -0.4870261      0             -3526.0638     -6028.0196     -26209.848      21.511079      21.615983      22.330203    
     13700   289.59475      0.0274         2.5068045     -0.34335999     0.11418029    -4820.8719     -4580.3846     -25068.045      21.567862      21.551566      22.334551    
     13800   287.1076       0.0276         2.3257506     -0.14715768     0.29523417    -3470.58       -1491.4035     -23257.506      21.586125      21.481833      22.338899    
     13900   301.93153      0.0278         2.1250121      0.048182461    0.4959727      3227.5016      400.32874     -21250.121      21.451122      21.561278      22.343246    
     14000   297.73274      0.028          1.9424299      0.21945716     0.67855488     2833.341       5275.0567     -19424.299      21.501376      21.470408      22.347594    
     14100   301.01727      0.0282         2.0090954      0.15932633     0.61188932     4529.5907      4285.5644     -20090.954      21.472678      21.481505      22.351942    
     14200   302.12844      0.0284         2.0502387      0.13604136     0.57074604     3041.3016      2358.1615     -20502.387      21.450751      21.538657      22.35629     
     14300   298.34608      0.0286         2.2421127     -0.018484787    0.37887211    -627.92883      1284.5402     -22421.127      21.532813      21.489576      22.360637    
     14400   299.18848      0.0288         2.5598923     -0.28450693     0.06109248    -2620.3195     -2945.7504     -25598.923      21.517022      21.543322      22.364985    
     14500   309.44665      0.029          2.604201      -0.30554885     0.016783721   -3063.6436     -4717.0345     -26042.01       21.502251      21.587118      22.369333    
     14600   301.49709      0.0292         2.5194912     -0.23098834     0.10149359    -3589.032      -2710.487      -25194.912      21.56571       21.499634      22.373681    
     14700   285.51221      0.0294         2.4489853     -0.1662644      0.17199945    -1114.0141     -858.02188     -24489.853      21.502248      21.523027      22.378029    
     14800   305.40675      0.0296         2.2439211      0.030616866    0.37706366     1885.0883      629.15954     -22439.211      21.445181      21.549763      22.382376    
     14900   305.77015      0.0298         2.2201052      0.063942061    0.40087954     2810.0752      4574.9437     -22201.052      21.515395      21.440153      22.386724    
     15000   304.0854       0.03           2.146381       0.15806141     0.47460377     4089.8514      3637.8666     -21463.81       21.448958      21.49346       22.391072    
     15100   307.14456      0.0302         2.2612369      0.068419656    0.35974788     3170.7052      2475.6459     -22612.369      21.441343      21.512795      22.39542     
     15200   309.2554       0.0304         2.4578921     -0.087470256    0.16309263    -994.35598      1888.5493     -24578.921      21.559005      21.442758      22.399768    
     15300   287.74428      0.0306         2.612779      -0.20529052     0.0082057282  -1391.3924     -1932.5922     -26127.79       21.481034      21.540457      22.404115    
     15400   300.51505      0.0308         2.7893124     -0.35888187     0             -2727.9018     -3981.9385     -27893.124      21.473445      21.570115      22.408463    
     15500   308.06467      0.031          2.7436124     -0.29924075     0.045699977   -5190.7242     -2048.9424     -27436.124      21.594817      21.455211      22.412811    
     15600   297.83297      0.0312         2.6791915     -0.21884978     0.11012092    -594.79512     -3273.8547     -26791.915      21.456328      21.558442      22.417159    
     15700   296.62686      0.0314         2.4139813      0.042859991    0.37533109     2851.472       1953.594      -24139.813      21.448412      21.496008      22.421506    
     15800   303.8199       0.0316         2.1341561      0.31170869     0.65515629     4107.7588      7488.473      -21341.561      21.513798      21.36682       22.425854    
     15900   302.27671      0.0318         2.049288       0.37949511     0.74002444     7055.2644      5191.5793     -20492.88       21.386904      21.497131      22.430202    
     16000   306.31058      0.032          2.4033689      0.051112971    0.38594351     3859.0716      2888.8642     -24033.689      21.44769       21.461855      22.43455     
     16100   306.50556      0.0322         2.6315446     -0.14003202     0.15776774    -1041.9997      552.16284     -26315.446      21.520923      21.445604      22.438898    
     16200   309.22494      0.0324         2.8033813     -0.27731978     0             -2380.1504     -3367.9796     -28033.813      21.463494      21.547645      22.443245    
     16300   281.52874      0.0326         2.852917      -0.30284166     0             -3898.363      -3271.7531     -28529.17       21.512548      21.496637      22.447593    
     16400   296.74117      0.0328         2.83103       -0.27678284     0.021887058   -3475.8356     -2839.6239     -28310.3        21.522942      21.477185      22.451941    
     16500   302.77672      0.033          2.7256747     -0.1732214      0.12724227    -272.37635     -1560.0378     -27256.747      21.469642      21.505848      22.456289    
     16600   293.0607       0.0332         2.6095156     -0.064029866    0.24340139     663.69419      2101.7782     -26095.156      21.496403      21.42461       22.460636    
     16700   284.26484      0.0334         2.4428949      0.10548218     0.41002208     3620.9741      3703.6908     -24428.949      21.453966      21.436277      22.464984    
     16800   293.23234      0.0336         2.2736644      0.28866354     0.5792526      5543.3129      4418.0113     -22736.644      21.393814      21.470727      22.469332    
     16900   313.75985      0.0338         2.4476831      0.15448434     0.40523388     3660.5276      4120.2922     -24476.831      21.460161      21.428233      22.47368     
     17000   297.88015      0.034          2.6928154     -0.061703322    0.16010157    -150.4597       1169.6784     -26928.154      21.478305      21.450227      22.478028    
     17100   303.12486      0.0342         3.0296602     -0.35873651     0             -2159.6848     -3869.2172     -30296.602      21.444592      21.531509      22.482375    
     17200   303.37231      0.0344         3.0511211     -0.35542346     0             -4776.7581     -3353.1135     -30511.211      21.541296      21.461415      22.486723    
     17300   303.83503      0.0346         3.052322      -0.33668386     0             -2777.0559     -3323.4012     -30523.22       21.495693      21.490084      22.491071    
     17400   289.44138      0.0348         2.8743747     -0.15440209     0.1779473     -1680.3476     -1280.3763     -28743.747      21.450308      21.493021      22.495419    
     17500   307.14965      0.035          2.7741434     -0.049323886    0.27817864     1081.6169      875.06132     -27741.434      21.458239      21.444099      22.499766    
     17600   300.78516      0.0352         2.5949038      0.12845448     0.45741819     2166.6735      2362.134      -25949.038      21.463676      21.421615      22.504114    
     17700   298.71992      0.0354         2.627149       0.11463476     0.42517306     3067.9955      2153.9355     -26271.49       21.426948      21.443577      22.508462    
     17800   294.39533      0.0356         2.8079487     -0.012736531    0.24437334     2027.3393      2322.3244     -28079.487      21.435221      21.450793      22.51281     
     17900   310.57458      0.0358         2.989195      -0.13983169     0.063126997    368.42873      482.83327     -29891.95       21.466749      21.441999      22.517158    
     18000   297.7362       0.036          3.045632      -0.16098702     0.0066900018  -2247.0387     -2878.2811     -30456.32       21.47705       21.465592      22.521505    
     18100   300.77734      0.0362         3.1946403     -0.29349731     0             -4398.4915     -4557.2909     -31946.403      21.477157      21.495095      22.525853    
     18200   307.35019      0.0364         3.2399626     -0.31993548     0             -4027.7213     -3240.0413     -32399.626      21.51232       21.458062      22.530201    
     18300   290.26353      0.0366         3.1254384     -0.19809958     0.11452427    -1987.82       -2466.7167     -31254.384      21.488427      21.438608      22.534549    
     18400   306.90606      0.0368         2.9075744      0.023084391    0.33238827     1180.6062      866.80173     -29075.744      21.426988      21.451624      22.538897    
     18500   303.76044      0.037          2.6593933      0.25979042     0.5805693      5543.2824      4669.4447     -26593.933      21.397039      21.421089      22.543244    
     18600   300.04907      0.0372         2.5558161      0.35945887     0.68414653     6031.1734      6619.2884     -25558.161      21.436519      21.355891      22.547592    
     18700   297.25884      0.0374         2.7231011      0.2017691      0.51686154     5251.8805      3958.9698     -27231.011      21.383342      21.420412      22.55194     
     18800   299.65476      0.0376         3.0581197     -0.1082324      0.18184294     533.76588     -114.61897     -30581.197      21.437275      21.437994      22.556288    
     18900   288.95474      0.0378         3.3061478     -0.32456521     0             -3986.0774     -3471.0439     -33061.478      21.506786      21.442966      22.560635    
     19000   289.54609      0.038          3.6927663     -0.64647026     0             -6876.8215     -7402.8618     -36927.663      21.4614        21.530589      22.564983    
     19100   291.36763      0.0382         3.5283214     -0.44865725     0.1644449     -5572.2759     -6272.8332     -35283.214      21.468183      21.503733      22.569331    
     19200   312.50037      0.0384         3.3576186     -0.26618891     0.33514765    -2413.732      -1561.8226     -33576.186      21.492965      21.412998      22.573679    
     19300   291.23085      0.0386         2.9951704      0.083232516    0.69759587     2967.2385      1999.4302     -29951.704      21.408749      21.41971       22.578027    
     19400   297.08064      0.0388         2.8826653      0.19324669     0.81010095     4500.6425      5038.952      -28826.653      21.392462      21.392992      22.582374    
     19500   311.51594      0.039          2.8208527      0.27120522     0.87191354     4357.3065      4658.9259     -28208.527      21.407735      21.385271      22.586722    
     19600   304.21872      0.0392         3.044117       0.096771032    0.64864927     3117.9571      2248.403      -30441.17       21.389985      21.422606      22.59107     
     19700   302.67018      0.0394         3.2382428     -0.045840628    0.45452344    -50.4468       -215.6168      -32382.428      21.441701      21.416872      22.595418    
     19800   309.35626      0.0396         3.3604382     -0.13780414     0.33232807    -2560.7573     -2100.3868     -33604.382      21.457437      21.437477      22.599765    
     19900   286.59998      0.0398         3.4365783     -0.20090117     0.25618799    -2739.3611     -3520.3901     -34365.783      21.422227      21.473112      22.604113    
     20000   310.42454      0.04           3.4860404     -0.27103593     0.20672582    -3475.266      -3593.672      -34860.404      21.458136      21.433918      22.608461    
     20100   310.85549      0.0402         3.2118256     -0.028470713    0.48094061    -702.56784     -48.038829     -32118.256      21.450064      21.400538      22.612809    
     20200   300.252        0.0404         3.1150891      0.044012881    0.57767715     4131.529       2356.5705     -31150.891      21.349394      21.43734       22.617157    
     20300   285.47854      0.0406         2.9002196      0.24938729     0.79254664     5204.2521      4142.4544     -29002.196      21.367536      21.394205      22.621504    
     20400   312.72714      0.0408         3.0334154      0.13126656     0.6593509      1579.281       4085.3005     -30334.154      21.433836      21.352785      22.625852    
     20500   292.83549      0.041          3.3337822     -0.11780731     0.35898408     485.745       -125.36978     -33337.822      21.388948      21.427424      22.6302      
     20600   299.00919      0.0412         3.5046741     -0.24264352     0.18809216    -2152.7369     -2624.8272     -35046.741      21.434535      21.420274      22.634548    
     20700   306.48869      0.0414         3.5615688     -0.26720563     0.13119746    -3637.3056     -2774.9917     -35615.688      21.446681      21.425287      22.638895    
     20800   295.70858      0.0416         3.542434      -0.22987125     0.15033226    -1353.0367     -2402.3941     -35424.34       21.39443       21.453296      22.643243    
     20900   301.67139      0.0418         3.4612979     -0.14626317     0.23146837    -1159.0737     -844.06259     -34612.979      21.421119      21.403173      22.647591    
     21000   305.17255      0.042          3.2965711     -0.00048334687  0.39619513    -186.79898      789.16177     -32965.711      21.417417      21.388174      22.651939    
     21100   283.68907      0.0422         3.2564702      0.044082061    0.43629608     2854.6549      1319.3567     -32564.702      21.345154      21.424816      22.656287    
     21200   302.08806      0.0424         3.2892014      0.028762023    0.40356481     1280.8634      2361.0687     -32892.014      21.391527      21.373628      22.660634    
     21300   300.51736      0.0426         3.3460292      0.016515195    0.34673702     1222.1993      1365.9483     -33460.292      21.39708       21.389911      22.664982    
     21400   303.77882      0.0428         3.6144004     -0.19375748     0.078365837   -1621.1948     -2339.1016     -36144.004      21.375646      21.457246      22.66933     
     21500   290.26434      0.043          3.7495153     -0.28729908     0             -3369.66       -2118.2406     -37495.153      21.424693      21.4142        22.673678    
     21600   307.16245      0.0432         3.769676      -0.28095955     0             -2254.4304     -2451.1592     -37696.76       21.408882      21.427775      22.678025    
     21700   302.05484      0.0434         3.4991698     -0.016693295    0.27050615    -150.39094     -2.8338157     -34991.698      21.386868      21.400492      22.682373    
     21800   298.86702      0.0436         3.47979       -0.0035778188   0.28988603     1227.9631      2107.7071     -34797.9        21.397002      21.362983      22.686721    
     21900   289.80216      0.0438         3.4971448     -0.017348005    0.27253115     3132.6722      2242.231      -34971.448      21.348677      21.388438      22.691069    
     22000   298.56016      0.044          3.4197451      0.07236911     0.34993087     2211.8184      2525.3178     -34197.451      21.364229      21.378712      22.695417    
     22100   298.39759      0.0442         3.4010942      0.10548247     0.36858183     1826.3354      2334.1177     -34010.942      21.382495      21.360537      22.699764    
     22200   286.29615      0.0444         3.5546909     -0.021565285    0.21498513     1808.9578      579.51065     -35546.909      21.387272      21.365561      22.704112    
     22300   294.70024      0.0446         3.7373808     -0.16512011     0.032295147   -1394.6268     -1636.1858     -37373.808      21.404359      21.390293      22.70846     
     22400   296.9561       0.0448         3.9350551     -0.33072887     0             -4426.981      -3006.1778     -39350.551      21.434098      21.402305      22.712808    
     22500   290.34371      0.045          3.9282598     -0.30605919     0.006795232   -2293.0789     -4946.2382     -39282.598      21.387168      21.441599      22.717156    
     22600   291.13909      0.0452         3.8032497     -0.1776917      0.13180535    -1728.6579     -525.13279     -38032.497      21.403583      21.371884      22.721503    
     22700   308.90004      0.0454         3.6063342      0.029940288    0.3287209      1209.5301      1060.4316     -36063.342      21.381493      21.359788      22.725851    
     22800   299.32449      0.0456         3.4882978      0.14882742     0.44675724     4148.9587      3032.05       -34882.978      21.331467      21.369076      22.730199    
     22900   294.97352      0.0458         3.4480963      0.18412409     0.48695877     4627.4111      4095.5475     -34480.963      21.352569      21.33084       22.734547    
     23000   295.57096      0.046          3.5637145      0.082902839    0.37134058     2801.0355      3175.8972     -35637.145      21.367647      21.33977       22.738894    
     23100   309.81134      0.0462         3.8487996     -0.15741176     0.086255436   -134.25466     -498.83802     -38487.996      21.356343      21.398197      22.743242    
     23200   302.59396      0.0464         4.0353142     -0.295864       0             -4196.5506     -3958.4282     -40353.142      21.425445      21.386786      22.74759     
     23300   293.72256      0.0466         4.1690898     -0.38646868     0             -5642.2601     -5512.2613     -41690.898      21.424438      21.402928      22.751938    
     23400   294.00113      0.0468         4.1981708     -0.38923813     0             -3437.5866     -4205.1481     -41981.708      21.386121      21.421343      22.756286    
     23500   311.55403      0.047          3.8062034     -0.0094763649   0.39196741    -904.60551     -1071.3107     -38062.034      21.405099      21.349329      22.760633    
     23600   305.11493      0.0472         3.7607449      0.03173169     0.43742595     2161.1076      1736.7317     -37607.449      21.387639      21.312098      22.764981    
     23700   293.38418      0.0474         3.7314916      0.073500704    0.46667922     4718.1616      2899.3734     -37314.916      21.345233      21.328145      22.769329    
     23800   309.405        0.0476         3.7176685      0.11026088     0.48050233     2331.8661      1700.2144     -37176.685      21.347407      21.355987      22.773677    
     23900   303.20218      0.0478         3.9505789     -0.072401264    0.24759193     698.2661       97.919906     -39505.789      21.369634      21.349122      22.778024    
     24000   292.81352      0.048          4.0903715     -0.15952815     0.10779935    -1292.8831     -2420.6753     -40903.715      21.37297       21.383043      22.782372    
     24100   306.58014      0.0482         4.1806904     -0.21665801     0.017480409   -3987.5284     -3743.8071     -41806.904      21.415366      21.378102      22.78672     
     24200   299.59025      0.0484         4.1319725     -0.15827424     0.066198358   -4104.2854     -4250.6704     -41319.725      21.415249      21.373323      22.791068    
     24300   293.29166      0.0486         4.2317168     -0.25175587     0             -2211.3319     -2952.6832     -42317.168      21.371467      21.384637      22.795416    
     24400   307.34806      0.0488         3.9787413     -0.020723379    0.25297544     851.51763      197.6842      -39787.413      21.358443      21.344232      22.799763    
     24500   314.66782      0.049          3.7514679      0.20107653     0.48024891     3056.8932      3724.8028     -37514.679      21.369741      21.291162      22.804111    
     24600   292.8446       0.0492         3.7229622      0.22580397     0.50875461     5952.5906      4195.4992     -37229.622      21.323792      21.304225      22.808459    
     24700   320.47759      0.0494         3.8600491      0.10157281     0.3716677      3640.5754      3706.1417     -38600.491      21.333674      21.308219      22.812807    
     24800   285.90544      0.0496         3.8931508      0.086019315    0.33856597     2342.7127      2417.3477     -38931.508      21.352287      21.316779      22.817154    
     24900   298.5491       0.0498         4.2569255     -0.24712067     0             -61.627003     -1105.1656     -42569.255      21.317591      21.38316       22.821502    
     25000   305.26614      0.05           4.2853284     -0.25602792     0             -2235.6487     -2401.5658     -42853.284      21.361898      21.367273      22.82585     
     25100   313.29197      0.0502         4.3940832     -0.34344341     0             -2339.8903     -2051.7087     -43940.832      21.385107      21.34659       22.830198    
     25200   295.19013      0.0504         4.2336374     -0.17283117     0.16044575     539.82539     -1055.5216     -42336.374      21.328347      21.360557      22.834546    
     25300   292.77718      0.0506         4.0996559     -0.052055762    0.29442724     1973.9396      2516.2338     -40996.559      21.346633      21.295626      22.838893    
     25400   301.79788      0.0508         4.0122612      0.038690976    0.38182199     2071.7646      2756.6971     -40122.612      21.338902      21.308123      22.843241    
     25500   310.20127      0.051          4.0820524      0.001958205    0.31203077     1317.9855      1351.3532     -40820.524      21.311286      21.337508      22.847589    
     25600   284.18309      0.0512         4.2611537     -0.12332396     0.13292946     783.76561      1257.8355     -42611.537      21.344364      21.321683      22.851937    
     25700   298.30916      0.0514         4.3236911     -0.13949712     0.070392089   -1399.1861     -1277.5407     -43236.911      21.35909       21.342761      22.856285    
     25800   306.50212      0.0516         4.5175947     -0.27095633     0             -3678.8022     -4348.6599     -45175.947      21.331306      21.401701      22.860632    
     25900   287.75364      0.0518         4.4488162     -0.18298877     0.068778493   -2959.3614     -1601.7797     -44488.162      21.364756      21.329232      22.86498     
     26000   292.67551      0.052          4.2733801     -0.0087474847   0.24421461     529.47179      1556.1785     -42733.801      21.348255      21.293534      22.869328    
     26100   302.24691      0.0522         4.001663       0.22372759     0.51593171     4594.8264      3602.2809     -40016.63       21.257054      21.348095      22.873676    
     26200   301.66791      0.0524         4.1169998      0.096727027    0.40059491     4712.1989      3228.1027     -41169.998      21.288819      21.306006      22.878023    
     26300   288.03664      0.0526         4.1921544      0.030822262    0.3254403      1457.257       3480.8243     -41921.544      21.351983      21.261372      22.882371    
     26400   318.48711      0.0528         4.4501894     -0.18341997     0.06740524    -1383.1716     -946.3403      -44501.894      21.311692      21.35452       22.886719    
     26500   304.217        0.053          4.6425897     -0.31976648     0             -2513.2363     -3557.357      -46425.897      21.30928       21.391068      22.891067    
     26600   288.88373      0.0532         4.6985549     -0.33199155     0             -4571.1868     -3392.445      -46985.549      21.383282      21.322121      22.895415    
     26700   303.02246      0.0534         4.5767262     -0.18485935     0.1218287     -3018.0053     -3309.1887     -45767.262      21.326277      21.370107      22.899762    
     26800   299.71438      0.0536         4.4112016     -0.029974107    0.28735324     397.60322     -659.26727     -44112.016      21.277419      21.367153      22.90411     
     26900   298.86985      0.0538         4.2542605      0.10751146     0.44429438     1483.5006      2186.7296     -42542.605      21.326538      21.269054      22.908458    
     27000   304.66235      0.054          4.2271979      0.12995578     0.47135691     2180.0556      3021.7139     -42271.979      21.310507      21.289216      22.912806    
     27100   297.70178      0.0542         4.3372466      0.053465466    0.36130823     3026.101       1561.2859     -43372.466      21.240762      21.360795      22.917153    
     27200   293.64176      0.0544         4.4755602     -0.048992092    0.22299463    -482.54398      708.29427     -44755.602      21.336965      21.28022       22.921501    
     27300   301.10827      0.0546         4.7373142     -0.25623005     0             -3581.6079     -1303.8043     -47373.142      21.403843      21.269377      22.925849    
     27400   311.65011      0.0548         4.9041063     -0.37763051     0             -4352.1142     -7007.2457     -49041.063      21.282411      21.433107      22.930197    
     27500   277.68233      0.055          4.9191352     -0.36500485     0             -3411.8678     -5197.6099     -49191.352      21.338897      21.360292      22.934545    
     27600   321.17219      0.0552         4.6962169     -0.14232034     0.22291831    -2653.3774     -91.385618     -46962.169      21.407713      21.224008      22.938892    
     27700   299.39547      0.0554         4.2478193      0.27318657     0.67131589     5110.1504      2257.39       -42478.193      21.220335      21.342435      22.94324     
     27800   298.20953      0.0556         4.3035559      0.2066854      0.6155793      5120.1136      4735.7476     -43035.559      21.221593      21.300922      22.947588    
     27900   301.89116      0.0558         4.3182346      0.19840409     0.60090057     2502.8389      4221.6567     -43182.346      21.324199      21.219311      22.951936    
     28000   294.56461      0.056          4.5639818     -0.013664721    0.35515337     1563.411       629.48882     -45639.818      21.29462       21.299092      22.956283    
     28100   299.84015      0.0562         4.8010412     -0.20434465     0.11809398    -1697.6433     -2583.6672     -48010.412      21.302499      21.337191      22.960631    
     28200   304.6778       0.0564         4.9893721     -0.34129431     0             -5548.6309     -3731.3649     -49893.721      21.358939      21.316915      22.964979    
     28300   291.81165      0.0566         4.9391584     -0.27089626     0.050213626   -3761.4178     -3973.4078     -49391.584      21.31528       21.343379      22.969327    
     28400   312.4377       0.0568         4.7987956     -0.14106448     0.19057648    -1185.8921     -1401.5313     -47987.956      21.291604      21.323632      22.973675    
     28500   305.39542      0.057          4.4331107      0.17601798     0.55626139     2655.6693      2591.043      -44331.107      21.289141      21.258195      22.978022    
     28600   288.48427      0.0572         4.2871053      0.28111217     0.70226674     5863.1014      6354.5492     -42871.053      21.242312      21.243029      22.98237     
     28700   299.79993      0.0574         4.3939404      0.18888923     0.59543169     4771.4622      3871.2001     -43939.404      21.240984      21.271076      22.986718    
     28800   301.10011      0.0576         4.6869046     -0.065740101    0.30246749     292.21531      1802.7398     -46869.046      21.308649      21.261875      22.991066    
     28900   295.63544      0.0578         4.9629922     -0.27735197     0.026379864   -3332.6135     -3478.4991     -49629.922      21.313411      21.323542      22.995414    
     29000   283.7924       0.058          5.2058189     -0.45599493     0             -5701.5192     -5186.3891     -52058.189      21.337981      21.325441      22.999761    
     29100   302.46826      0.0582         5.1765026     -0.38913251     0.029316292   -4969.5878     -4182.3011     -51765.026      21.345934      21.301988      23.004109    
     29200   301.17213      0.0584         4.7568523      0.0072658423   0.44896662    -418.33165     -75.588469     -47568.523      21.275746      21.301293      23.008457    
     29300   298.18102      0.0586         4.6372076      0.096715382    0.56861124     2669.2119      3236.7164     -46372.076      21.242677      21.272436      23.012805    
     29400   301.95046      0.0588         4.4791099      0.22284452     0.72670895     4508.4296      5181.7298     -44791.099      21.237137      21.248581      23.017152    
     29500   302.75495      0.059          4.5112353      0.19853157     0.69458354     5406.259       4392.9201     -45112.353      21.225285      21.25752       23.0215      
     29600   299.67112      0.0592         4.880538      -0.11142783     0.32528087     1342.4685      1338.5264     -48805.38       21.269038      21.26438       23.025848    
     29700   294.83715      0.0594         4.990216      -0.16147827     0.21560286    -2265.6147     -1964.4116     -49902.16       21.315093      21.289407      23.030196    
     29800   316.76203      0.0596         5.2570837     -0.37132803     0             -4731.2044     -5544.9623     -52570.837      21.348168      21.2908        23.034544    
     29900   291.38419      0.0598         5.2127595     -0.30202714     0.044324154   -4100.5005     -3932.0949     -52127.595      21.335003      21.279284      23.038891    
     30000   296.89976      0.06           5.0001012     -0.1099406      0.25698246    -960.34215     -1224.8779     -50001.012      21.265844      21.299958      23.043239    
     30100   307.50739      0.0602         4.7569261      0.091276859    0.50015757     2049.829       3847.0759     -47569.261      21.256018      21.236842      23.047587    
     30200   299.37056      0.0604         4.6674193      0.1718404      0.58966441     4537.8482      4866.3157     -46674.193      21.253811      21.211136      23.051935    
     30300   309.52539      0.0606         4.8066305      0.049571461    0.45045318     3936.9553      2962.5496     -48066.305      21.244078      21.232622      23.056282    
     30400   285.42857      0.0608         4.9208575     -0.020480775    0.33622619     1847.734       780.49747     -49208.575      21.247876      21.264931      23.06063     
     30500   305.71882      0.061          5.2402876     -0.26700563     0.01679611    -2692.5086     -1771.2761     -52402.876      21.321001      21.254643      23.064978    
     30600   310.76915      0.0612         5.3607528     -0.33944939     0             -4833.7392     -4579.4685     -53607.528      21.320964      21.282984      23.069326    
     30700   286.02606      0.0614         5.2898674     -0.2385988      0.070885451   -2831.4782     -3541.9726     -52898.674      21.282178      21.292766      23.073674    
     30800   312.05529      0.0616         5.2206392     -0.17301506     0.14011365    -2625.5369     -2020.5662     -52206.392      21.346845      21.210232      23.078021    
     30900   295.90411      0.0618         5.1156528     -0.077739359    0.24510002    -348.28717      448.2283      -51156.528      21.313877      21.205013      23.082369    
     31000   289.08278      0.062          4.9373929      0.094249708    0.42335992     4299.3554      2420.4971     -49373.929      21.162642      21.297798      23.086717    
     31100   298.67903      0.0622         4.7805293      0.25347359     0.58022348     5236.7152      4706.1401     -47805.293      21.198061      21.230475      23.091065    
     31200   307.8688       0.0624         4.8048095      0.2429324      0.55594326     2082.6814      4922.6854     -48048.095      21.368973      21.08586       23.095412    
     31300   300.82354      0.0626         5.1567057     -0.073956252    0.20404709    -463.94601     -1339.2821     -51567.057      21.260126      21.261985      23.09976     
     31400   294.77454      0.0628         5.5603954     -0.41369216     0             -3580.7051     -6766.7031     -55603.954      21.186585      21.402571      23.104108    
     31500   309.40912      0.063          5.5628043     -0.38384939     0             -7013.8881     -5416.668      -55628.043      21.337011      21.270309      23.108456    
     31600   305.0011       0.0632         5.4366534     -0.2501084      0.12615093    -3325.8199     -1978.9425     -54366.534      21.341768      21.20921       23.112804    
     31700   305.21204      0.0634         5.3055112     -0.11740182     0.25729313     893.88208     -1321.8816     -53055.112      21.218368      21.277029      23.117151    
     31800   300.23063      0.0636         5.0569268      0.11481137     0.50587756     2729.5261      2670.6393     -50569.268      21.25928       21.200053      23.121499    
     31900   314.23688      0.0638         5.0804288      0.087786904    0.48237549     2704.9561      2572.9652     -50804.288      21.252233      21.185199      23.125847    
     32000   291.58903      0.064          5.1170195      0.069158932    0.44578486     2603.5626      3270.0393     -51170.195      21.176314      21.258795      23.130195    
     32100   305.45554      0.0642         5.2652062     -0.030560132    0.29759811     1191.5176      33.444381     -52652.062      21.175149      21.304475      23.134542    
     32200   298.76243      0.0644         5.4270186     -0.13015163     0.1357857     -2374.0018     -1489.2926     -54270.186      21.300574      21.217256      23.13889     
     32300   289.62257      0.0646         5.6286979     -0.28463165     0             -4007.6587     -3044.6972     -56286.979      21.287181      21.247448      23.143238    
     32400   293.25534      0.0648         5.4739169     -0.13849855     0.15478094    -1991.326      -1990.1256     -54739.169      21.224412      21.290961      23.147586    
     32500   314.0147       0.065          5.3156553     -0.0049518386   0.31304256    -349.42186      1198.8433     -53156.553      21.28258       21.187003      23.151934    
     32600   297.10925      0.0652         5.0826816      0.19262468     0.54601625     2464.6175      4825.8364     -50826.816      21.252416      21.162514      23.156281    
     32700   306.76931      0.0654         5.0907292      0.16309889     0.53796867     5421.3424      3409.2885     -50907.292      21.114988      21.275822      23.160629    
     32800   301.66144      0.0656         5.1244337      0.13614504     0.50426412     2555.0083      1786.2799     -51244.337      21.18371       21.254777      23.164977    
     32900   300.05457      0.0658         5.453043      -0.15520282     0.17565484    -1969.9354     -245.00855     -54530.43       21.302096      21.178427      23.169325    
     33000   292.2832       0.066          5.572078      -0.22873199     0.056619818   -1476.5055     -2084.1725     -55720.78       21.219795      21.26365       23.173673    
     33100   301.63705      0.0662         5.5077646     -0.14016271     0.12093325    -1154.2413     -1921.5898     -55077.646      21.181336      21.307293      23.17802     
     33200   299.42229      0.0664         5.4044493     -0.039104306    0.2242486     -734.0995       314.36212     -54044.493      21.248394      21.210486      23.182368    
     33300   286.05896      0.0666         5.3633224     -0.024514993    0.26537546     621.87715      968.76764     -53633.224      21.259051      21.173588      23.186716    
     33400   317.07749      0.0668         5.4323234     -0.097675313    0.19637449    -381.6108       635.5983      -54323.234      21.21961       21.234779      23.191064    
     33500   302.64291      0.067          5.4493433     -0.10132648     0.17935452     2111.8115      960.15849     -54493.433      21.188163      21.23654       23.195411    
     33600   286.27776      0.0672         5.3105679      0.060237587    0.31812996     2352.6585      3213.8468     -53105.679      21.22302       21.170172      23.199759    
     33700   303.94746      0.0674         5.4873662     -0.076896984    0.14133169     592.1707       1007.6761     -54873.662      21.252505      21.185294      23.204107    
     33800   306.37014      0.0676         5.6622974     -0.19804186     0             -2240.8581     -2320.3008     -56622.974      21.215477      21.253398      23.208455    
     33900   288.55776      0.0678         5.7497026     -0.25578105     0             -3769.9319     -3393.836      -57497.026      21.243881      21.246478      23.212803    
     34000   307.03021      0.068          5.8214194     -0.30256372     0             -4035.8893     -2299.8654     -58214.194      21.287178      21.198704      23.21715     
     34100   294.63113      0.0682         5.4909335      0.026239018    0.33048585     16.999772      207.08723     -54909.335      21.214476      21.210956      23.221498    
     34200   305.92225      0.0684         5.268855       0.23475808     0.55256433     2717.2123      2932.8932     -52688.55       21.192186      21.181076      23.225846    
     34300   301.97018      0.0686         5.2462138      0.24568842     0.57520554     3633.3936      4325.8269     -52462.138      21.221918      21.140022      23.230194    
     34400   299.04846      0.0688         5.4615348      0.033288627    0.3598846      2586.9111      1382.1085     -54615.348      21.189585      21.193521      23.234541    
     34500   314.78342      0.069          5.6506272     -0.1356754      0.17079219    -77.1575       -1233.2978     -56506.272      21.190439      21.239295      23.238889    
     34600   295.19339      0.0692         5.7141438     -0.15883443     0.10727558    -1875.0455     -1546.6541     -57141.438      21.234854      21.204995      23.243237    
     34700   290.6121       0.0694         5.8655744     -0.27244421     0             -2422.9994     -1068.0294     -58655.744      21.229284      21.207794      23.247585    
     34800   305.27304      0.0696         5.6756438     -0.08117899     0.18993058     299.08091     -472.83202     -56756.438      21.17212       21.241361      23.251933    
     34900   305.99199      0.0698         5.5386792      0.034683325    0.32689524     2426.9405      2047.3627     -55386.792      21.212754      21.161881      23.25628     
     35000   295.17996      0.07           5.5808975     -0.031587206    0.28467689     2652.1434      3569.5092     -55808.975      21.250986      21.095237      23.260628    
     35100   298.31546      0.0702         5.468752       0.078340104    0.39682235     3667.6185      2567.5697     -54687.52       21.15646       21.196683      23.264976    
     35200   283.06616      0.0704         5.575281       0.0024537255   0.29029337     2747.8681      964.52965     -55752.81       21.114692      21.258724      23.269324    
     35300   294.30843      0.0706         5.9795116     -0.3284471      0             -3263.5652     -2596.0209     -59795.116      21.241461      21.201689      23.273671    
     35400   300.66157      0.0708         6.1259358     -0.40843119     0             -6629.3397     -4743.2171     -61259.358      21.284004      21.205894      23.278019    
     35500   290.30133      0.071          6.020176      -0.26571646     0.10575984    -3413.7893     -5388.3619     -60201.76       21.152302      21.323851      23.282367    
     35600   307.04922      0.0712         5.9588837     -0.17995023     0.16705208    -1547.6959     -3134.2325     -59588.837      21.154707      21.266351      23.286715    
     35700   300.05258      0.0714         5.712643       0.050997333    0.41329278    -48.637543      2593.0433     -57126.43       21.26162       21.106643      23.291063    
     35800   308.64169      0.0716         5.5813892      0.17282573     0.54454664     3733.78        4106.2995     -55813.892      21.185972      21.140525      23.29541     
     35900   300.64447      0.0718         5.5719485      0.18559332     0.55398729     4371.9936      2547.6066     -55719.485      21.061463      21.261173      23.299758    
     36000   288.75802      0.072          5.774985       0.0019655524   0.35095077     720.0002       965.85092     -57749.85       21.166417      21.186395      23.304106    
     36100   316.43585      0.0722         5.9421925     -0.11789786     0.18374331    -4345.3369     -1216.973      -59421.925      21.287637      21.127331      23.308454    
     36200   299.18999      0.0724         6.0355388     -0.16521842     0.090396964   -3072.7702     -3642.8749     -60355.388      21.196004      21.234378      23.312802    
     36300   295.74548      0.0726         6.0575091     -0.17938896     0.068426669   -1838.0826     -2939.0334     -60575.091      21.133022      21.276933      23.317149    
     36400   300.42269      0.0728         5.9463388     -0.086178299    0.17959704    -571.45756     -360.5141      -59463.388      21.219115      21.151442      23.321497    
     36500   295.58278      0.073          5.6208095      0.19941433     0.50512632     1820.3713      4191.021      -56208.095      21.189764      21.129598      23.325845    
     36600   300.37508      0.0732         5.6425463      0.14604378     0.48338951     4051.9606      2404.1657     -56425.463      21.041436      21.271379      23.330193    
     36700   298.4938       0.0734         5.8876483     -0.081557705    0.2382875      1621.5954      745.23167     -58876.483      21.135985      21.194727      23.33454     
     36800   290.24507      0.0736         5.9840698     -0.1377111      0.14186604    -3626.4253      217.97271     -59840.698      21.352131      21.028449      23.338888    
     36900   306.1183       0.0738         6.1811466     -0.27386813     0             -4113.3491     -3726.7785     -61811.466      21.213592      21.209402      23.343236    
     37000   301.27537      0.074          6.2142564     -0.26305075     0             -1574.9727     -3976.4297     -62142.564      21.060705      21.330649      23.347584    
     37100   302.35986      0.0742         6.035231      -0.074721542    0.17902536    -292.99752      269.40085     -60352.31       21.182595      21.165519      23.351932    
     37200   298.55733      0.0744         5.8644999      0.078905667    0.34975646     1797.5847      3688.7598     -58644.999      21.23683       21.065052      23.356279    
     37300   299.35825      0.0746         5.8232526      0.096727355    0.39100381     4351.2991      2629.0506     -58232.526      21.104996      21.191211      23.360627    
     37400   298.19428      0.0748         6.0234804     -0.095786359    0.19077593     2123.9056      454.98859     -60234.804      21.084178      21.23164       23.364975    
     37500   310.28005      0.075          6.2213334     -0.23358692     0             -2794.3497     -185.50574     -62213.334      21.272671      21.084275      23.369323    
     37600   305.25626      0.0752         6.1679239     -0.1276397      0.053409452   -2788.8933     -734.49726     -61679.239      21.27782       21.090104      23.37367     
     37700   293.02356      0.0754         6.2592089     -0.18176862     0             -1041.4533     -3326.2863     -62592.089      21.085031      21.278777      23.378018    
     37800   287.92302      0.0756         6.1423667     -0.049096748    0.11684217     1315.897      -2546.1201     -61423.667      21.04955       21.282132      23.382366    
     37900   305.15592      0.0758         6.1113436     -0.025053893    0.14786533    -879.6344       3057.5862     -61113.436      21.251868      21.062801      23.386714    
     38000   292.95732      0.076          5.8540831      0.19618929     0.40512585     2920.1325      3824.4195     -58540.831      21.193676      21.073263      23.391062    
     38100   297.10941      0.0762         6.0162795      0.032097727    0.24292944     3945.7129      1614.9678     -60162.795      21.049438      21.213459      23.395409    
     38200   296.51515      0.0764         6.1366675     -0.061073588    0.12254136     1457.1738      331.37534     -61366.675      21.126456      21.183589      23.399757    
     38300   307.00698      0.0766         6.3375233     -0.21050231     0             -2330.3917     -835.87968     -63375.233      21.270264      21.074463      23.404105    
     38400   292.01612      0.0768         6.3440183     -0.18494346     0             -2351.1514     -2108.7701     -63440.183      21.197356      21.150688      23.408453    
     38500   298.95893      0.077          6.2654562     -0.10196908     0.078562101    347.40897     -1187.5537     -62654.562      21.079045      21.254048      23.4128      
     38600   298.17754      0.0772         5.9275526      0.21189733     0.41646563     2113.4968      2640.869      -59275.526      21.089849      21.172888      23.417148    
     38700   295.55398      0.0774         6.0948898      0.028128296    0.24912851     1508.6524      4317.4068     -60948.898      21.158694      21.093172      23.421496    
     38800   306.48005      0.0776         6.2313125     -0.099399882    0.11270576     137.52938      745.32674     -62313.125      21.15023       21.14967       23.425844    
     38900   315.11354      0.0778         6.4425399     -0.27750761     0             -1335.8374     -1571.8457     -64425.399      21.135066      21.201003      23.430192    
     39000   297.70557      0.078          6.5948676     -0.35575692     0             -3309.1093     -2573.2175     -65948.676      21.191427      21.155531      23.434539    
     39100   304.75453      0.0782         6.3393        -0.067887241    0.25556763    -2185.4442     -629.33319     -63393          21.211562      21.113433      23.438887    
     39200   292.84828      0.0784         6.1781999      0.09736609     0.41666772     2464.6409      1666.5879     -61781.999      21.074491      21.184793      23.443235    
     39300   290.15786      0.0786         6.0947347      0.15655243     0.50013292     4272.6197      2689.2769     -60947.347      21.045529      21.189483      23.447583    
     39400   316.35679      0.0788         6.2337009      0.0065545156   0.36116674     1352.5378      2564.1525     -62337.009      21.139648      21.108904      23.451931    
     39500   314.42566      0.079          6.2341681      0.0029585545   0.36069959     65.395067      465.18673     -62341.681      21.143049      21.143537      23.456278    
     39600   295.46341      0.0792         6.4744782     -0.18265904     0.12038945    -1559.5497     -2298.4152     -64744.782      21.115525      21.195004      23.460626    
[...]
     62100   305.1654       0.1242         8.8103664     -0.080346471    0.10697605    -2888.7676     -4605.2954     -88103.664      20.859527      20.961324      24.438877    
     62200   299.78873      0.1244         8.856972      -0.10298473     0.060370519   -2388.2043     -5516.271      -88569.72       20.743168      21.074495      24.443225    
     62300   280.67442      0.1246         8.8008572     -0.026041152    0.11648526    -121.81384     -1069.7907     -88008.572      20.794373      20.964992      24.447572    
     62400   304.42833      0.1248         8.7671442     -0.0037324792   0.15019824     2195.6484      2009.2516     -87671.442      20.85086       20.858654      24.45192     
     62500   305.69786      0.125          8.7220783      0.021807083    0.19526423     3061.3561      3584.6234     -87220.783      20.876616      20.809101      24.456268    
     62600   289.5793       0.1252         8.7551693     -0.017976382    0.16217322     1827.2171      478.31916     -87551.693      20.916708      20.794958      24.460616    
     62700   294.65663      0.1254         8.779756      -0.047367384    0.13758648    -2634.1404     -1270.3335     -87797.56       20.986038      20.764232      24.464963    
     62800   300.87475      0.1256         8.8749493     -0.11226874     0.04239315    -5352.0231     -3399.7691     -88749.493      20.999716      20.794418      24.469311    
     62900   310.09069      0.1258         8.9508504     -0.13747865     0             -1224.6094     -2783.0265     -89508.504      20.903036      20.855327      24.473659    
     63000   293.63304      0.126          8.7451764      0.061155539    0.205674       2226.0918      2368.2388     -87451.764      20.819651      20.857688      24.478007    
     63100   303.77036      0.1262         8.7929053      0.011680584    0.15794516     3965.1317      2553.6224     -87929.053      20.765098      20.920782      24.482355    
     63200   300.28389      0.1264         8.823688      -0.022430598    0.12716237     2193.5395      3102.2078     -88236.88       20.76952       20.921169      24.486702    
     63300   305.20629      0.1266         8.8225563     -0.019128916    0.12829415     314.41874     -466.23146     -88225.563      20.833454      20.882507      24.49105     
     63400   303.79481      0.1268         9.0123304     -0.18438441     0             -2506.3909     -2607.1659     -90123.304      20.941545      20.83647       24.495398    
     63500   297.48099      0.127          9.0323753     -0.17339965     0             -4089.8722     -2666.764      -90323.753      20.971618      20.805626      24.499746    
     63600   292.75017      0.1272         9.0100644     -0.12559918     0.022310963   -1344.3768     -1851.3327     -90100.644      20.860252      20.882596      24.504094    
     63700   305.32967      0.1274         8.7860455      0.099048633    0.24632983     2340.8548      855.9007      -87860.455      20.683399      21.005696      24.508441    
     63800   306.99941      0.1276         8.6140941      0.24491452     0.41828124     3263.0131      3560.2958     -86140.941      20.618633      21.056951      24.512789    
     63900   295.79155      0.1278         8.8650586     -0.014629226    0.16731667     1728.1417      2050.2731     -88650.586      20.725975      20.956402      24.517137    
     64000   288.27218      0.128          8.8759045     -0.012402274    0.15647081    -64.83991       270.91904     -88759.045      20.853449      20.841887      24.521485    
     64100   305.73683      0.1282         8.9291362     -0.052010869    0.10323912    -2141.8664     -1049.4823     -89291.362      20.913706      20.823133      24.525832    
     64200   302.48134      0.1284         8.8859355     -0.0025854675   0.14643977    -685.46708     -235.20088     -88859.355      20.872102      20.834186      24.53018     
     64300   299.83392      0.1286         9.0653007     -0.15767615     0             -315.25547      357.0166      -90653.007      20.811124      20.88466       24.534528    
     64400   307.13728      0.1288         8.9481641     -0.046956172    0.11713661     1132.3409      277.52678     -89481.641      20.770242      20.911896      24.538876    
     64500   305.37052      0.129          8.8294167      0.051495285    0.23588393     1066.7463      874.93478     -88294.167      20.769853      20.909523      24.543224    
     64600   298.29581      0.1292         8.8378145      0.025872505    0.22748613    -168.16374      1167.4182     -88378.145      20.761504      20.903765      24.547571    
     64700   287.85211      0.1294         8.949409      -0.069385597    0.11589168    -57.532283     -868.66759     -89494.09       20.773228      20.925804      24.551919    
     64800   312.44935      0.1296         8.9519512     -0.038142123    0.11334943    -2744.2812     -3167.6763     -89519.512      20.802778      20.941491      24.556267    
     64900   306.97278      0.1298         9.067486      -0.13343418     0             -3516.4524     -3049.7342     -90674.86       20.816436      20.930562      24.560615    
     65000   290.4622       0.13           8.9733089     -0.029516596    0.094177151    1435.4373      1409.9539     -89733.089      20.751385      20.922521      24.564962    
     65100   295.02528      0.1302         8.702382       0.21873491     0.36510408     5635.4878      4665.1017     -87023.82       20.666963      20.916707      24.56931     
     65200   301.0716       0.1304         8.5821777      0.30856342     0.48530838     3820.2799      3010.2059     -85821.777      20.749888      20.869874      24.573658    
     65300   306.82333      0.1306         9.1331899     -0.23565987     0             -1245.6435     -1228.7875     -91331.899      20.893699      20.806108      24.578006    
     65400   282.12594      0.1308         9.1026756     -0.1896944      0.030514323   -4430.9415     -3433.8857     -91026.756      20.987617      20.758942      24.582354    
     65500   295.7513       0.131          9.0747571     -0.13724192     0.058432768   -4114.3179     -3694.593      -90747.571      21.010196      20.727107      24.586701    
     65600   281.51274      0.1312         8.913741       0.031366843    0.21944889    -122.81994     -680.10388     -89137.41       20.928818      20.751277      24.591049    
     65700   313.25356      0.1314         8.9327621      0.010681023    0.20042775     2567.2801      1005.2276     -89327.621      20.796846      20.843421      24.595397    
     65800   296.90553      0.1316         8.7504329      0.17285837     0.38275693     2184.4922      3406.8768     -87504.329      20.707066      20.912683      24.599745    
     65900   304.72992      0.1318         8.9105609     -0.0029620913   0.22262898     1444.6955      451.79605     -89105.609      20.64368       20.97974       24.604092    
     66000   301.10976      0.132          8.7809416      0.10742048     0.35224829     315.44885      59.00052      -87809.416      20.634005      20.994134      24.60844     
     66100   317.81175      0.1322         9.0168193     -0.097013516    0.11637055    -1535.5066     -2157.4623     -90168.193      20.636681      21.045743      24.612788    
     66200   286.58501      0.1324         8.9974452     -0.036112623    0.1357447     -1634.2712     -2247.7952     -89974.452      20.675011      21.000424      24.617136    
     66300   313.01247      0.1326         9.0992763     -0.14133514     0.033913536   -2818.3659     -2688.8381     -90992.763      20.775226      20.919443      24.621484    
     66400   306.07018      0.1328         9.1219199     -0.16205425     0.011269986   -812.63181     -466.00439     -91219.199      20.862737      20.802384      24.625831    
     66500   285.58893      0.133          8.9467893      0.00027957979  0.1864006      1547.1034      2754.4793     -89467.893      20.856653      20.750316      24.630179    
     66600   305.01258      0.1332         8.898732       0.046835918    0.23445783     1336.3093      2114.2501     -88987.32       20.820227      20.790953      24.634527    
     66700   299.03917      0.1334         8.8733151      0.066308181    0.2598748      124.56321      794.85982     -88733.151      20.792063      20.84          24.638875    
     66800   285.07933      0.1336         8.8295194      0.11801248     0.30367046     294.25363     -566.48383     -88295.194      20.752605      20.863052      24.643222    
     66900   301.31257      0.1338         8.9479792      0.0032945255   0.18521067    -1187.9664     -571.38631     -89479.792      20.771051      20.86514       24.64757     
     67000   293.87992      0.134          8.8677952      0.092163848    0.26539462     730.73851     -533.10587     -88677.952      20.712384      20.902764      24.651918    
     67100   301.29894      0.1342         9.1861741     -0.20927954     0             -189.58575     -376.59988     -91861.741      20.659885      20.973405      24.656266    
     67200   306.74639      0.1344         8.9899949     -0.01384538     0.19617918     872.22577     -244.68321     -89899.949      20.589746      21.02768       24.660614    
     67300   301.06742      0.1346         8.9420936      0.018337662    0.24408049     1436.3181     -79.849568     -89420.936      20.627283      20.989691      24.664961    
     67400   295.32384      0.1348         8.9596136     -0.015412959    0.2265605      32.056151      894.20494     -89596.136      20.798356      20.804647      24.669309    
     67500   296.76964      0.135          8.9682223     -0.021878373    0.21795178    -367.23371      354.08981     -89682.223      20.929919      20.676956      24.673657    
     67600   307.349        0.1352         9.0216994     -0.063058668    0.16447475    -1582.8777     -1787.4952     -90216.994      20.998841      20.645285      24.678005    
     67700   302.12213      0.1354         9.1070824     -0.12506496     0.079091728   -2292.3527     -1783.316      -91070.824      20.995976      20.664482      24.682353    
     67800   304.2492       0.1356         9.2303654     -0.20826336     0             -1977.0097     -483.05737     -92303.654      20.839034      20.795561      24.6867      
     67900   301.90648      0.1358         9.0053455      0.022493107    0.22501984     2749.6869      1295.8143     -90053.455      20.591223      20.989803      24.691048    
     68000   307.62379      0.136          8.918029       0.11483299     0.31233634     3584.0302      2899.8187     -89180.29       20.500724      21.064171      24.695396    
     68100   301.35566      0.1362         9.1434797     -0.11488709     0.086885705    1067.4425      1959.4581     -91434.797      20.559168      21.033396      24.699744    
     68200   287.89194      0.1364         9.1634257     -0.11749002     0.066939697   -761.56459     -1101.9935     -91634.257      20.661569      20.963196      24.704091    
     68300   290.75008      0.1366         9.2784866     -0.19891161     0             -3277.0425     -2982.7939     -92784.866      20.775769      20.896993      24.708439    
     68400   315.94214      0.1368         9.2911094     -0.1783849      0             -3147.3696     -2587.0449     -92911.094      20.779999      20.88162       24.712787    
     68500   300.34719      0.137          9.1395636     -0.0097049363   0.15154583     839.81893     -550.87732     -91395.636      20.734713      20.857726      24.717135    
     68600   309.99496      0.1372         8.9968598      0.13051495     0.29424968     3041.6518      3103.4378     -89968.598      20.683435      20.853819      24.721483    
     68700   288.3473       0.1374         8.8475798      0.25384466     0.44352965     4186.7936      4327.1832     -88475.798      20.662379      20.844761      24.72583     
     68800   306.69072      0.1376         8.979111       0.097187982    0.3119984      494.4049       1079.5237     -89791.11       20.813464      20.773039      24.730178    
     68900   297.71817      0.1378         9.1572476     -0.065758346    0.13386188    -1763.1529     -1961.8808     -91572.476      20.975459      20.646837      24.734526    
     69000   292.11289      0.138          9.4793003     -0.33168398     0             -5082.2394     -3540.7766     -94793.003      21.135471      20.535582      24.738874    
     69100   296.3333       0.1382         9.1778076     -0.026758469    0.30149271    -1872.4984     -3615.9066     -91778.076      21.08503       20.554748      24.743221    
     69200   299.74052      0.1384         9.1139029      0.032193967    0.36539743     1690.1941      1663.4221     -91139.029      20.934089      20.626043      24.747569    
     69300   296.2479       0.1386         9.0460941      0.076763528    0.43320624     4663.9881      4593.6104     -90460.941      20.777763      20.744321      24.751917    
     69400   290.97627      0.1388         9.3124797     -0.18748508     0.1668206      4218.6348      2006.9771     -93124.797      20.696959      20.840907      24.756265    
     69500   294.06201      0.139          9.4132952     -0.26092742     0.066005102   -311.59181     -394.97206     -94132.952      20.752871      20.854265      24.760613    
     69600   304.16377      0.1392         9.4001914     -0.20749041     0.079108953   -2620.3548     -1609.153      -94001.914      20.833395      20.805159      24.76496     
     69700   300.84172      0.1394         9.432853      -0.18162468     0.046447362   -2635.1175     -1538.0882     -94328.53       20.868393      20.742857      24.769308    
     69800   285.254        0.1396         9.343024      -0.055404407    0.13627634    -699.34592     -313.38748     -93430.24       20.875927      20.711503      24.773656    
     69900   295.21413      0.1398         9.246082       0.050420967    0.23321827    -0.22468574     143.23887     -92460.82       20.830778      20.761533      24.778004    
     70000   301.96908      0.14           9.2579615      0.016407673    0.22133886     1828.0228      1151.5072     -92579.615      20.689322      20.861111      24.782351    
     70100   290.21023      0.1402         9.2258699      0.053305444    0.2534304      2201.231       1072.1277     -92258.699      20.606571      20.932389      24.786699    
     70200   314.41453      0.1404         9.3384122     -0.036785933    0.14088809     55.685346     -1346.2793     -93384.122      20.62964       20.95553       24.791047    
     70300   293.87813      0.1406         9.3339943     -0.0035780161   0.14530598    -695.23439     -1657.8474     -93339.943      20.728961      20.846838      24.795395    
     70400   308.07738      0.1408         9.2037242      0.11581657     0.27557612    -389.50663     -294.59445     -92037.242      20.921971      20.629943      24.799743    
     70500   306.96582      0.141          9.0212092      0.25912293     0.45809108     1339.628       1066.3417     -90212.092      21.140686      20.386661      24.80409     
     70600   289.41054      0.1412         8.8698804      0.35742065     0.60941989     2606.3702      2741.2374     -88698.804      21.26788       20.202206      24.808438    
     70700   306.81603      0.1414         8.7800368      0.38198269     0.69926354     2537.6864      415.92387     -87800.368      21.34699       20.130475      24.812786    
     70800   299.70965      0.1416         8.6482322      0.44430809     0.83106813    -153.85063     -1117.6661     -86482.322      21.477322      19.992121      24.817134    
     70900   297.83655      0.1418         8.2286949      0.76210664     1.2506054     -1367.9525     -2604.899      -82286.949      21.747781      19.691762      24.821482    
Fix halt condition for fix-id halt_peak_fix met on step 71000 with value 1
     71000   320.82591      0.142          7.2486326      1.541236       2.2306677     -2134.7275     -642.60495     -72486.326      22.108164      19.286853      24.825829    
Loop time of 318.493 on 1 procs for 71000 steps with 864 atoms

Performance: 38.521 ns/day, 0.623 hours/ns, 222.925 timesteps/s, 192.607 katom-step/s
109.3% CPU use with 1 MPI tasks x 1 OpenMP threads

MPI task timing breakdown:
Section |  min time  |  avg time  |  max time  |%varavg| %total
---------------------------------------------------------------
Pair    | 312.22     | 312.22     | 312.22     |   0.0 | 98.03
Neigh   | 1.0583     | 1.0583     | 1.0583     |   0.0 |  0.33
Comm    | 1.0084     | 1.0084     | 1.0084     |   0.0 |  0.32
Output  | 1.9503     | 1.9503     | 1.9503     |   0.0 |  0.61
Modify  | 2.0293     | 2.0293     | 2.0293     |   0.0 |  0.64
Other   |            | 0.2234     |            |       |  0.07

Nlocal:            864 ave         864 max         864 min
Histogram: 1 0 0 0 0 0 0 0 0 0
Nghost:           6198 ave        6198 max        6198 min
Histogram: 1 0 0 0 0 0 0 0 0 0
Neighs:         198618 ave      198618 max      198618 min
Histogram: 1 0 0 0 0 0 0 0 0 0
FullNghs:       397492 ave      397492 max      397492 min
Histogram: 1 0 0 0 0 0 0 0 0 0

Total # of neighbors = 397492
Ave neighs/atom = 460.06019
Neighbor list builds = 133
Dangerous builds = 0
Total wall time: 0:05:28
13      0.1406         9.3339943     -0.0035780161   0.14530598    -695.23439     -1657.8474     -93339.943      20.728961      20.846838      24.795395    
     70400   308.07738      0.1408         9.2037242      0.11581657     0.27557612    -389.50663     -294.59445     -92037.242      20.921971      20.629943      24.799743    
     70500   306.96582      0.141          9.0212092      0.25912293     0.45809108     1339.628       1066.3417     -90212.092      21.140686      20.386661      24.80409     
     70600   289.41054      0.1412         8.8698804      0.35742065     0.60941989     2606.3702      2741.2374     -88698.804      21.26788       20.202206      24.808438    
     70700   306.81603      0.1414         8.7800368      0.38198269     0.69926354     2537.6864      415.92387     -87800.368      21.34699       20.130475      24.812786    
     70800   299.70965      0.1416         8.6482322      0.44430809     0.83106813    -153.85063     -1117.6661     -86482.322      21.477322      19.992121      24.817134    
     70900   297.83655      0.1418         8.2286949      0.76210664     1.2506054     -1367.9525     -2604.899      -82286.949      21.747781      19.691762      24.821482    
Fix halt condition for fix-id halt_peak_fix met on step 71000 with value 1
     71000   320.82591      0.142          7.2486326      1.541236       2.2306677     -2134.7275     -642.60495     -72486.326      22.108164      19.286853      24.825829    
Loop time of 318.493 on 1 procs for 71000 steps with 864 atoms

Performance: 38.521 ns/day, 0.623 hours/ns, 222.925 timesteps/s, 192.607 katom-step/s
109.3% CPU use with 1 MPI tasks x 1 OpenMP threads

MPI task timing breakdown:
Section |  min time  |  avg time  |  max time  |%varavg| %total
---------------------------------------------------------------
Pair    | 312.22     | 312.22     | 312.22     |   0.0 | 98.03
Neigh   | 1.0583     | 1.0583     | 1.0583     |   0.0 |  0.33
Comm    | 1.0084     | 1.0084     | 1.0084     |   0.0 |  0.32
Output  | 1.9503     | 1.9503     | 1.9503     |   0.0 |  0.61
Modify  | 2.0293     | 2.0293     | 2.0293     |   0.0 |  0.64
Other   |            | 0.2234     |            |       |  0.07

Nlocal:            864 ave         864 max         864 min
Histogram: 1 0 0 0 0 0 0 0 0 0
Nghost:           6198 ave        6198 max        6198 min
Histogram: 1 0 0 0 0 0 0 0 0 0
Neighs:         198618 ave      198618 max      198618 min
Histogram: 1 0 0 0 0 0 0 0 0 0
FullNghs:       397492 ave      397492 max      397492 min
Histogram: 1 0 0 0 0 0 0 0 0 0

Total # of neighbors = 397492
Ave neighs/atom = 460.06019
Neighbor list builds = 133
Dangerous builds = 0
Total wall time: 0:05:28
