(written by ASE)

42592 atoms
1 atom types

0.0      79.530000000000001  xlo xhi
0.0      79.530000000000001  ylo yhi
0.0      79.530000000000001  zlo zhi

Atoms # atomic

     1   1                       0                       0                       0
     2   1                       0      1.8075000000000001      1.8075000000000001
     3   1      1.8075000000000001                       0      1.8075000000000001
     4   1      1.8075000000000001      1.8075000000000001                       0
     5   1                       0                       0      3.6150000000000002
     6   1                       0      1.8075000000000001      5.4225000000000003
     7   1      1.8075000000000001                       0      5.4225000000000003
     8   1      1.8075000000000001      1.8075000000000001      3.6150000000000002
     9   1                       0                       0      7.2300000000000004
    10   1                       0      1.8075000000000001      9.0375000000000014
    11   1      1.8075000000000001                       0      9.0375000000000014
    12   1      1.8075000000000001      1.8075000000000001      7.2300000000000004
    13   1                       0                       0      10.845000000000001
    14   1                       0      1.8075000000000001                 12.6525
    15   1      1.8075000000000001                       0                 12.6525
    16   1      1.8075000000000001      1.8075000000000001      10.845000000000001
    17   1                       0                       0      14.460000000000001
    18   1                       0      1.8075000000000001      16.267500000000002
    19   1      1.8075000000000001                       0      16.267500000000002
    20   1      1.8075000000000001      1.8075000000000001      14.460000000000001
    21   1                       0                       0      18.075000000000003
    22   1                       0      1.8075000000000001      19.882500000000004
    23   1      1.8075000000000001                       0      19.882500000000004
    24   1      1.8075000000000001      1.8075000000000001      18.075000000000003
    25   1                       0                       0      21.690000000000001
    26   1                       0      1.8075000000000001      23.497500000000002
    27   1      1.8075000000000001                       0      23.497500000000002
    28   1      1.8075000000000001      1.8075000000000001      21.690000000000001
    29   1                       0                       0                  25.305
    30   1                       0      1.8075000000000001      27.112500000000001
    31   1      1.8075000000000001                       0      27.112500000000001
    32   1      1.8075000000000001      1.8075000000000001                  25.305
    33   1                       0                       0      28.920000000000002
    34   1                       0      1.8075000000000001      30.727500000000003
    35   1      1.8075000000000001                       0      30.727500000000003
    36   1      1.8075000000000001      1.8075000000000001      28.920000000000002
    37   1                       0                       0      32.535000000000004
    38   1                       0      1.8075000000000001      34.342500000000001
    39   1      1.8075000000000001                       0      34.342500000000001
    40   1      1.8075000000000001      1.8075000000000001      32.535000000000004
    41   1                       0                       0      36.150000000000006
    42   1                       0      1.8075000000000001      37.957500000000003
    43   1      1.8075000000000001                       0      37.957500000000003
    44   1      1.8075000000000001      1.8075000000000001      36.150000000000006
    45   1                       0                       0      39.765000000000001
    46   1                       0      1.8075000000000001      41.572499999999998
    47   1      1.8075000000000001                       0      41.572499999999998
    48   1      1.8075000000000001      1.8075000000000001      39.765000000000001
    49   1                       0                       0      43.380000000000003
    50   1                       0      1.8075000000000001                 45.1875
    51   1      1.8075000000000001                       0                 45.1875
    52   1      1.8075000000000001      1.8075000000000001      43.380000000000003
    53   1                       0                       0      46.995000000000005
    54   1                       0      1.8075000000000001      48.802500000000002
    55   1      1.8075000000000001                       0      48.802500000000002
    56   1      1.8075000000000001      1.8075000000000001      46.995000000000005
    57   1                       0                       0      50.609999999999999
    58   1                       0      1.8075000000000001      52.417499999999997
    59   1      1.8075000000000001                       0      52.417499999999997
    60   1      1.8075000000000001      1.8075000000000001      50.609999999999999
    61   1                       0                       0      54.225000000000001
    62   1                       0      1.8075000000000001      56.032499999999999
    63   1      1.8075000000000001                       0      56.032499999999999
    64   1      1.8075000000000001      1.8075000000000001      54.225000000000001
    65   1                       0                       0      57.840000000000003
    66   1                       0      1.8075000000000001      59.647500000000001
    67   1      1.8075000000000001                       0      59.647500000000001
    68   1      1.8075000000000001      1.8075000000000001      57.840000000000003
    69   1                       0                       0      61.455000000000005
    70   1                       0      1.8075000000000001      63.262500000000003
    71   1      1.8075000000000001                       0      63.262500000000003
    72   1      1.8075000000000001      1.8075000000000001      61.455000000000005
    73   1                       0                       0      65.070000000000007
    74   1                       0      1.8075000000000001      66.877500000000012
    75   1      1.8075000000000001                       0      66.877500000000012
    76   1      1.8075000000000001      1.8075000000000001      65.070000000000007
    77   1                       0                       0      68.685000000000002
    78   1                       0      1.8075000000000001      70.492500000000007
    79   1      1.8075000000000001                       0      70.492500000000007
    80   1      1.8075000000000001      1.8075000000000001      68.685000000000002
    81   1                       0                       0      72.300000000000011
    82   1                       0      1.8075000000000001      74.107500000000016
    83   1      1.8075000000000001                       0      74.107500000000016
    84   1      1.8075000000000001      1.8075000000000001      72.300000000000011
    85   1                       0                       0      75.915000000000006
    86   1                       0      1.8075000000000001      77.722500000000011
    87   1      1.8075000000000001                       0      77.722500000000011
    88   1      1.8075000000000001      1.8075000000000001      75.915000000000006
    89   1                       0      3.6150000000000002                       0
    90   1                       0      5.4225000000000003      1.8075000000000001
    91   1      1.8075000000000001      3.6150000000000002      1.8075000000000001
    92   1      1.8075000000000001      5.4225000000000003                       0
    93   1                       0      3.6150000000000002      3.6150000000000002
    94   1                       0      5.4225000000000003      5.4225000000000003
    95   1      1.8075000000000001      3.6150000000000002      5.4225000000000003
    96   1      1.8075000000000001      5.4225000000000003      3.6150000000000002
    97   1                       0      3.6150000000000002      7.2300000000000004
    98   1                       0      5.4225000000000003      9.0375000000000014
    99   1      1.8075000000000001      3.6150000000000002      9.0375000000000014
   100   1      1.8075000000000001      5.4225000000000003      7.2300000000000004
   101   1                       0      3.6150000000000002      10.845000000000001
   102   1                       0      5.4225000000000003                 12.6525
   103   1      1.8075000000000001      3.6150000000000002                 12.6525
   104   1      1.8075000000000001      5.4225000000000003      10.845000000000001
   105   1                       0      3.6150000000000002      14.460000000000001
   106   1                       0      5.4225000000000003      16.267500000000002
   107   1      1.8075000000000001      3.6150000000000002      16.267500000000002
   108   1      1.8075000000000001      5.4225000000000003      14.460000000000001
   109   1                       0      3.6150000000000002      18.075000000000003
   110   1                       0      5.4225000000000003      19.882500000000004
   111   1      1.8075000000000001      3.6150000000000002      19.882500000000004
   112   1      1.8075000000000001      5.4225000000000003      18.075000000000003
   113   1                       0      3.6150000000000002      21.690000000000001
   114   1                       0      5.4225000000000003      23.497500000000002
   115   1      1.8075000000000001      3.6150000000000002      23.497500000000002
   116   1      1.8075000000000001      5.4225000000000003      21.690000000000001
   117   1                       0      3.6150000000000002                  25.305
   118   1                       0      5.4225000000000003      27.112500000000001
   119   1      1.8075000000000001      3.6150000000000002      27.112500000000001
   120   1      1.8075000000000001      5.4225000000000003                  25.305
   121   1                       0      3.6150000000000002      28.920000000000002
   122   1                       0      5.4225000000000003      30.727500000000003
   123   1      1.8075000000000001      3.6150000000000002      30.727500000000003
   124   1      1.8075000000000001      5.4225000000000003      28.920000000000002
   125   1                       0      3.6150000000000002      32.535000000000004
   126   1                       0      5.4225000000000003      34.342500000000001
   127   1      1.8075000000000001      3.6150000000000002      34.342500000000001
   128   1      1.8075000000000001      5.4225000000000003      32.535000000000004
   129   1                       0      3.6150000000000002      36.150000000000006
   130   1                       0      5.4225000000000003      37.957500000000003
   131   1      1.8075000000000001      3.6150000000000002      37.957500000000003
   132   1      1.8075000000000001      5.4225000000000003      36.150000000000006
   133   1                       0      3.6150000000000002      39.765000000000001
   134   1                       0      5.4225000000000003      41.572499999999998
   135   1      1.8075000000000001      3.6150000000000002      41.572499999999998
   136   1      1.8075000000000001      5.4225000000000003      39.765000000000001
   137   1                       0      3.6150000000000002      43.380000000000003
   138   1                       0      5.4225000000000003                 45.1875
   139   1      1.8075000000000001      3.6150000000000002                 45.1875
   140   1      1.8075000000000001      5.4225000000000003      43.380000000000003
   141   1                       0      3.6150000000000002      46.995000000000005
   142   1                       0      5.4225000000000003      48.802500000000002
   143   1      1.8075000000000001      3.6150000000000002      48.802500000000002
   144   1      1.8075000000000001      5.4225000000000003      46.995000000000005
   145   1                       0      3.6150000000000002      50.609999999999999
   146   1                       0      5.4225000000000003      52.417499999999997
   147   1      1.8075000000000001      3.6150000000000002      52.417499999999997
   148   1      1.8075000000000001      5.4225000000000003      50.609999999999999
   149   1                       0      3.6150000000000002      54.225000000000001
   150   1                       0      5.4225000000000003      56.032499999999999
   151   1      1.8075000000000001      3.6150000000000002      56.032499999999999
   152   1      1.8075000000000001      5.4225000000000003      54.225000000000001
   153   1                       0      3.6150000000000002      57.840000000000003
   154   1                       0      5.4225000000000003      59.647500000000001
   155   1      1.8075000000000001      3.6150000000000002      59.647500000000001
   156   1      1.8075000000000001      5.4225000000000003      57.840000000000003
   157   1                       0      3.6150000000000002      61.455000000000005
   158   1                       0      5.4225000000000003      63.262500000000003
   159   1      1.8075000000000001      3.6150000000000002      63.262500000000003
   160   1      1.8075000000000001      5.4225000000000003      61.455000000000005
   161   1                       0      3.6150000000000002      65.070000000000007
   162   1                       0      5.4225000000000003      66.877500000000012
   163   1      1.8075000000000001      3.6150000000000002      66.877500000000012
   164   1      1.8075000000000001      5.4225000000000003      65.070000000000007
   165   1                       0      3.6150000000000002      68.685000000000002
   166   1                       0      5.4225000000000003      70.492500000000007
   167   1      1.8075000000000001      3.6150000000000002      70.492500000000007
   168   1      1.8075000000000001      5.4225000000000003      68.685000000000002
   169   1                       0      3.6150000000000002      72.300000000000011
   170   1                       0      5.4225000000000003      74.107500000000016
   171   1      1.8075000000000001      3.6150000000000002      74.107500000000016
   172   1      1.8075000000000001      5.4225000000000003      72.300000000000011
   173   1                       0      3.6150000000000002      75.915000000000006
   174   1                       0      5.4225000000000003      77.722500000000011
   175   1      1.8075000000000001      3.6150000000000002      77.722500000000011
   176   1      1.8075000000000001      5.4225000000000003      75.915000000000006
   177   1                       0      7.2300000000000004                       0
   178   1                       0      9.0375000000000014      1.8075000000000001
   179   1      1.8075000000000001      7.2300000000000004      1.8075000000000001
   180   1      1.8075000000000001      9.0375000000000014                       0
   181   1                       0      7.2300000000000004      3.6150000000000002
   182   1                       0      9.0375000000000014      5.4225000000000003
   183   1      1.8075000000000001      7.2300000000000004      5.4225000000000003
   184   1      1.8075000000000001      9.0375000000000014      3.6150000000000002
   185   1                       0      7.2300000000000004      7.2300000000000004
   186   1                       0      9.0375000000000014      9.0375000000000014
   187   1      1.8075000000000001      7.2300000000000004      9.0375000000000014
   188   1      1.8075000000000001      9.0375000000000014      7.2300000000000004
   189   1                       0      7.2300000000000004      10.845000000000001
   190   1                       0      9.0375000000000014                 12.6525
   191   1      1.8075000000000001      7.2300000000000004                 12.6525
   192   1      1.8075000000000001      9.0375000000000014      10.845000000000001
   193   1                       0      7.2300000000000004      14.460000000000001
   194   1                       0      9.0375000000000014      16.267500000000002
   195   1      1.8075000000000001      7.2300000000000004      16.267500000000002
   196   1      1.8075000000000001      9.0375000000000014      14.460000000000001
   197   1                       0      7.2300000000000004      18.075000000000003
   198   1                       0      9.0375000000000014      19.882500000000004
   199   1      1.8075000000000001      7.2300000000000004      19.882500000000004
   200   1      1.8075000000000001      9.0375000000000014      18.075000000000003
   201   1                       0      7.2300000000000004      21.690000000000001
   202   1                       0      9.0375000000000014      23.497500000000002
   203   1      1.8075000000000001      7.2300000000000004      23.497500000000002
   204   1      1.8075000000000001      9.0375000000000014      21.690000000000001
   205   1                       0      7.2300000000000004                  25.305
   206   1                       0      9.0375000000000014      27.112500000000001
   207   1      1.8075000000000001      7.2300000000000004      27.112500000000001
   208   1      1.8075000000000001      9.0375000000000014                  25.305
   209   1                       0      7.2300000000000004      28.920000000000002
   210   1                       0      9.0375000000000014      30.727500000000003
   211   1      1.8075000000000001      7.2300000000000004      30.727500000000003
   212   1      1.8075000000000001      9.0375000000000014      28.920000000000002
   213   1                       0      7.2300000000000004      32.535000000000004
   214   1                       0      9.0375000000000014      34.342500000000001
   215   1      1.8075000000000001      7.2300000000000004      34.342500000000001
   216   1      1.8075000000000001      9.0375000000000014      32.535000000000004
   217   1                       0      7.2300000000000004      36.150000000000006
   218   1                       0      9.0375000000000014      37.957500000000003
   219   1      1.8075000000000001      7.2300000000000004      37.957500000000003
   220   1      1.8075000000000001      9.0375000000000014      36.150000000000006
   221   1                       0      7.2300000000000004      39.765000000000001
   222   1                       0      9.0375000000000014      41.572499999999998
   223   1      1.8075000000000001      7.2300000000000004      41.572499999999998
   224   1      1.8075000000000001      9.0375000000000014      39.765000000000001
   225   1                       0      7.2300000000000004      43.380000000000003
   226   1                       0      9.0375000000000014                 45.1875
   227   1      1.8075000000000001      7.2300000000000004                 45.1875
   228   1      1.8075000000000001      9.0375000000000014      43.380000000000003
   229   1                       0      7.2300000000000004      46.995000000000005
   230   1                       0      9.0375000000000014      48.802500000000002
   231   1      1.8075000000000001      7.2300000000000004      48.802500000000002
   232   1      1.8075000000000001      9.0375000000000014      46.995000000000005
   233   1                       0      7.2300000000000004      50.609999999999999
   234   1                       0      9.0375000000000014      52.417499999999997
   235   1      1.8075000000000001      7.2300000000000004      52.417499999999997
   236   1      1.8075000000000001      9.0375000000000014      50.609999999999999
   237   1                       0      7.2300000000000004      54.225000000000001
   238   1                       0      9.0375000000000014      56.032499999999999
   239   1      1.8075000000000001      7.2300000000000004      56.032499999999999
   240   1      1.8075000000000001      9.0375000000000014      54.225000000000001
   241   1                       0      7.2300000000000004      57.840000000000003
   242   1                       0      9.0375000000000014      59.647500000000001
   243   1      1.8075000000000001      7.2300000000000004      59.647500000000001
   244   1      1.8075000000000001      9.0375000000000014      57.840000000000003
   245   1                       0      7.2300000000000004      61.455000000000005
   246   1                       0      9.0375000000000014      63.262500000000003
   247   1      1.8075000000000001      7.2300000000000004      63.262500000000003
   248   1      1.8075000000000001      9.0375000000000014      61.455000000000005
   249   1                       0      7.2300000000000004      65.070000000000007
   250   1                       0      9.0375000000000014      66.877500000000012
   251   1      1.8075000000000001      7.2300000000000004      66.877500000000012
   252   1      1.8075000000000001      9.0375000000000014      65.070000000000007
   253   1                       0      7.2300000000000004      68.685000000000002
   254   1                       0      9.0375000000000014      70.492500000000007
   255   1      1.8075000000000001      7.2300000000000004      70.492500000000007
   256   1      1.8075000000000001      9.0375000000000014      68.685000000000002
   257   1                       0      7.2300000000000004      72.300000000000011
   258   1                       0      9.0375000000000014      74.107500000000016
   259   1      1.8075000000000001      7.2300000000000004      74.107500000000016
   260   1      1.8075000000000001      9.0375000000000014      72.300000000000011
   261   1                       0      7.2300000000000004      75.915000000000006
   262   1                       0      9.0375000000000014      77.722500000000011
   263   1      1.8075000000000001      7.2300000000000004      77.722500000000011
   264   1      1.8075000000000001      9.0375000000000014      75.915000000000006
   265   1                       0      10.845000000000001                       0
   266   1                       0                 12.6525      1.8075000000000001
   267   1      1.8075000000000001      10.845000000000001      1.8075000000000001
   268   1      1.8075000000000001                 12.6525                       0
   269   1                       0      10.845000000000001      3.6150000000000002
   270   1                       0                 12.6525      5.4225000000000003
   271   1      1.8075000000000001      10.845000000000001      5.4225000000000003
   272   1      1.8075000000000001                 12.6525      3.6150000000000002
   273   1                       0      10.845000000000001      7.2300000000000004
   274   1                       0                 12.6525      9.0375000000000014
   275   1      1.8075000000000001      10.845000000000001      9.0375000000000014
   276   1      1.8075000000000001                 12.6525      7.2300000000000004
   277   1                       0      10.845000000000001      10.845000000000001
   278   1                       0                 12.6525                 12.6525
   279   1      1.8075000000000001      10.845000000000001                 12.6525
   280   1      1.8075000000000001                 12.6525      10.845000000000001
   281   1                       0      10.845000000000001      14.460000000000001
   282   1                       0                 12.6525      16.267500000000002
   283   1      1.8075000000000001      10.845000000000001      16.267500000000002
   284   1      1.8075000000000001                 12.6525      14.460000000000001
   285   1                       0      10.845000000000001      18.075000000000003
   286   1                       0                 12.6525      19.882500000000004
   287   1      1.8075000000000001      10.845000000000001      19.882500000000004
   288   1      1.8075000000000001                 12.6525      18.075000000000003
   289   1                       0      10.845000000000001      21.690000000000001
   290   1                       0                 12.6525      23.497500000000002
   291   1      1.8075000000000001      10.845000000000001      23.497500000000002
   292   1      1.8075000000000001                 12.6525      21.690000000000001
   293   1                       0      10.845000000000001                  25.305
   294   1                       0                 12.6525      27.112500000000001
   295   1      1.8075000000000001      10.845000000000001      27.112500000000001
   296   1      1.8075000000000001                 12.6525                  25.305
   297   1                       0      10.845000000000001      28.920000000000002
   298   1                       0                 12.6525      30.727500000000003
   299   1      1.8075000000000001      10.845000000000001      30.727500000000003
   300   1      1.8075000000000001                 12.6525      28.920000000000002
   301   1                       0      10.845000000000001      32.535000000000004
   302   1                       0                 12.6525      34.342500000000001
   303   1      1.8075000000000001      10.845000000000001      34.342500000000001
   304   1      1.8075000000000001                 12.6525      32.535000000000004
   305   1                       0      10.845000000000001      36.150000000000006
   306   1                       0                 12.6525      37.957500000000003
   307   1      1.8075000000000001      10.845000000000001      37.957500000000003
   308   1      1.8075000000000001                 12.6525      36.150000000000006
   309   1                       0      10.845000000000001      39.765000000000001
   310   1                       0                 12.6525      41.572499999999998
   311   1      1.8075000000000001      10.845000000000001      41.572499999999998
   312   1      1.8075000000000001                 12.6525      39.765000000000001
   313   1                       0      10.845000000000001      43.380000000000003
   314   1                       0                 12.6525                 45.1875
   315   1      1.8075000000000001      10.845000000000001                 45.1875
   316   1      1.8075000000000001                 12.6525      43.380000000000003
   317   1                       0      10.845000000000001      46.995000000000005
   318   1                       0                 12.6525      48.802500000000002
   319   1      1.8075000000000001      10.845000000000001      48.802500000000002
   320   1      1.8075000000000001                 12.6525      46.995000000000005
   321   1                       0      10.845000000000001      50.609999999999999
   322   1                       0                 12.6525      52.417499999999997
   323   1      1.8075000000000001      10.845000000000001      52.417499999999997
   324   1      1.8075000000000001                 12.6525      50.609999999999999
   325   1                       0      10.845000000000001      54.225000000000001
   326   1                       0                 12.6525      56.032499999999999
   327   1      1.8075000000000001      10.845000000000001      56.032499999999999
   328   1      1.8075000000000001                 12.6525      54.225000000000001
   329   1                       0      10.845000000000001      57.840000000000003
   330   1                       0                 12.6525      59.647500000000001
   331   1      1.8075000000000001      10.845000000000001      59.647500000000001
   332   1      1.8075000000000001                 12.6525      57.840000000000003
   333   1                       0      10.845000000000001      61.455000000000005
   334   1                       0                 12.6525      63.262500000000003
   335   1      1.8075000000000001      10.845000000000001      63.262500000000003
   336   1      1.8075000000000001                 12.6525      61.455000000000005
   337   1                       0      10.845000000000001      65.070000000000007
   338   1                       0                 12.6525      66.877500000000012
   339   1      1.8075000000000001      10.845000000000001      66.877500000000012
   340   1      1.8075000000000001                 12.6525      65.070000000000007
   341   1                       0      10.845000000000001      68.685000000000002
   342   1                       0                 12.6525      70.492500000000007
   343   1      1.8075000000000001      10.845000000000001      70.492500000000007
   344   1      1.8075000000000001                 12.6525      68.685000000000002
   345   1                       0      10.845000000000001      72.300000000000011
   346   1                       0                 12.6525      74.107500000000016
   347   1      1.8075000000000001      10.845000000000001      74.107500000000016
   348   1      1.8075000000000001                 12.6525      72.300000000000011
   349   1                       0      10.845000000000001      75.915000000000006
   350   1                       0                 12.6525      77.722500000000011
   351   1      1.8075000000000001      10.845000000000001      77.722500000000011
   352   1      1.8075000000000001                 12.6525      75.915000000000006
   353   1                       0      14.460000000000001                       0
   354   1                       0      16.267500000000002      1.8075000000000001
   355   1      1.8075000000000001      14.460000000000001      1.8075000000000001
   356   1      1.8075000000000001      16.267500000000002                       0
   357   1                       0      14.460000000000001      3.6150000000000002
   358   1                       0      16.267500000000002      5.4225000000000003
   359   1      1.8075000000000001      14.460000000000001      5.4225000000000003