(written by ASE)

4164 atoms
2 atom types

0.0      31.066736431430968  xlo xhi
0.0      30.196583067908424  ylo yhi
0.0      63.439223082615818  zlo zhi

Atoms # atomic

     1   1   -0.019548097988783833   -0.014153376947425271      33.426509454389851
     2   1      1.4554203997515882      2.5231557934480096      33.327614114531208
     3   1      1.5252601375973343     0.84849976158873974      35.637806908025851
     4   1   -0.018092162154086006      3.3793348644804664      35.704007192007055
     5   1    0.022187867284222354       1.713814206908574       38.02727090251917
     6   1      1.4860319678491125      4.1870320571194748      38.042919960563758
     7   1   -0.024987705278709249  -0.0033886994063414846      40.421084793299009
     8   1      1.3283177653858811      2.5614733314404536      40.316918510010623
     9   1      1.3349194119212355     0.86079414015237032      42.714698084420398
    10   1   -0.011139152164296125      3.4518864074269349      42.650931670634407
    11   1   -0.045232783486951693      1.6221677373711048      45.032031951744479
    12   1      1.4368010296665303      4.1954608083441247      45.123096616421172
    13   1   -0.027315558605953735   -0.011939803693554579      47.438476515334486
    14   1      1.4400019265229904      2.5148226880685187        47.4199006689417
    15   1      1.3952215739761222     0.82712815864623246      49.720487908465472
    16   1    0.039241746662221876      3.3138460547090132      49.727169242498704
    17   1   -0.076011360912330295      1.6264269603424895      52.030885082020689
    18   1      1.4778195044405977      4.2256669539661642      52.170848474066737
    19   1    0.021842909231866568   0.0028326811691296592      54.499040084568016
    20   1      1.3576407545411757      2.4340230558750107      54.402551045756553
    21   1      1.3827445709832158     0.85430761849544035      56.773360347423747
    22   1    0.032732580817407902      3.3997073114726999      56.756554702079669
    23   1  -0.0061390099403002725      1.7692427920405824      59.075627827356826
    24   1      1.4267598226076856      4.2938638585203632       59.19506271134528
    25   1    0.054408520930013908   -0.016904014854960431      61.417676626956592
    26   1       1.337544884951009      2.5103021067977713      61.427174509257014
    27   1   -0.066415262165258684      5.0287153934059905      33.322801430471991
    28   1      1.3912006043036151      7.5835079427783656       33.42230714800742
    29   1      1.3247274416789001       5.875367993994514      35.786699201214404
    30   1    0.087314290886797583      8.3749665374252604      35.710112983871809
    31   1   -0.039870258091586883      6.7378782580134757      38.099005631924605
    32   1      1.4120916785545701      9.2839415433741568      37.963988283798066
    33   1   -0.053822334527175247      4.9567601561158847       40.36338703493692
    34   1      1.4918418084388585      7.5692444563949826       40.48046301559112
    35   1      1.4161460430838424      5.8056240771958825      42.686958314191671
    36   1   -0.040676296221079836      8.4583008373354343      42.682901819636506
    37   1   0.0068180179813110489      6.7392902658055993      44.996986919497118
    38   1      1.3936780906881134      9.2398174538257578      45.088038557601202
    39   1   -0.018833083593318766      5.0095042041483406      47.405657537512745
    40   1      1.4110945040998373      7.5737202186982104      47.448395799895685
    41   1       1.350644655346559      5.8744874140740011      49.826209829254928
    42   1  -0.0099552155507908018      8.3973263045137809       49.77849413956605
    43   1     0.06443806165203915      6.7784647892553185      52.069047486740757
    44   1      1.4116633121143818      9.2650269682121777      52.091629734076903
    45   1   -0.045199814706164874      4.9855938976183571       54.48629876159891
    46   1      1.4600193452724153      7.6074616909568658      54.476876437840318
    47   1      1.3507513139180045      5.9197492577026116       56.83795262504082
    48   1   0.0030374739946846755      8.3064460296709974      56.701424923186124
    49   1     0.02927214779651896       6.704982422739203      59.120337826590159
    50   1      1.3865111919627306      9.2315105551878514      59.101126534722397
    51   1   -0.046575790356121749      5.1789229071148632      61.295834236824973
    52   1      1.3483850678073344       7.614513821245513      61.477644847772652
    53   1   -0.032069672773353236      10.134429311288496      33.296828250601166
    54   1      1.3534367668329832      12.631820109235056      33.322417583796486
    55   1      1.4094066758313537      10.818344470678726      35.757984809058655
    56   1  -0.0076749056538617765      13.503273596484897      35.674010527530939
    57   1   -0.090205610883633866       11.70794419876726      38.093639961190533
    58   1      1.3512502556393702      14.200456338379576      38.120997884892923
    59   1    0.015418114303207553      10.037420136474278      40.367052930168299
    60   1      1.4369897471694613      12.631865055044866      40.360018236554296
    61   1      1.3626859087511043      10.789126100914862      42.752399587118667
    62   1  -0.0027041407516633217      13.532411574282259      42.763631796033785
    63   1   -0.017668704235168718      11.749672746712719      45.050334141553336
    64   1      1.4307664844630266       14.26325916736203      45.035318871115813
    65   1   0.0045359545984586256       10.02956288915456      47.377961741640298
    66   1       1.417030390158228      12.639997597793977      47.431836737660383
    67   1      1.4384702581517654      10.966126689281145      49.690390892120931
    68   1    0.071568444364603329      13.408140814482495      49.777695344875106
    69   1    0.029591622151615832      11.741330125355118      52.149482862960468
    70   1      1.4291545993807864      14.271181938120362       52.12254216161891
    71   1  -0.0021260682483725838      10.107458522050266      54.372878113412362
    72   1        1.42426253565838      12.591943789626558      54.464304478731094
    73   1      1.3010049839936058      11.047612682549484      56.825432706694443
    74   1   -0.024644440739524622      13.432110006983502      56.729388306076743
    75   1    0.006380680789939407       11.73866347138801      59.095685952119233
    76   1      1.3867165383821853       14.21751320126487      59.010555550335027
    77   1    0.061164439312226475      10.056446685843481       61.48108501787074
    78   1      1.4291213814135286      12.634994931581673      61.452615995939958
    79   1      0.1041316193149343      15.053008888062996      33.357671165037779
    80   1      1.4261740626101655      17.663683134872613      33.318926454668564
    81   1      1.3471812811285824      15.973053727524157      35.647196447266914
    82   1    0.065111792851237221      18.384511297341877      35.691671382164884
    83   1    0.091753113275062623      16.720076744921109      38.168469036846858
    84   1      1.3996330407154585      19.198744361034979      38.062303671729886
    85   1   -0.040549559644942786      15.143893780181555      40.379497025102658
    86   1      1.4237374192531711      17.577798259407256      40.441494474300676
    87   1      1.4063192352539211      15.895032150833138      42.662068477197259
    88   1   -0.091643312275744016       18.36084321437643      42.752809961858738
    89   1    0.014885998172045847      16.753587328745255      45.047660664679682
    90   1      1.3528593746815429      19.231330775903444      45.182443102772339
    91   1   -0.037569573815500683      15.042746175314079      47.421595944820801
    92   1       1.423576211081597      17.594658933930148      47.480051948501377
    93   1      1.3670161515295407      15.951975808158194      49.759791568073666
    94   1   -0.083764425011031832      18.467678431704599      49.676343020708067
    95   1    0.024908729301792151       16.77079380698644      52.079881476536613
    96   1      1.3757774270585468      19.296788857177749      52.096192632393944
    97   1   -0.027979876012152745       15.13203989723884      54.475619378266018
    98   1       1.436813646889515      17.626706720088677       54.40103661607575
    99   1      1.4422709497630912      15.938069145918069      56.724935720956196
   100   1    0.068399156803168978      18.496871529924892      56.749444962503361
   101   1    0.020641392011342612      16.816210147875367       59.15045637745245
   102   1      1.4912333649909886      19.283273805337654      59.066122311721095
   103   1   -0.068443217562956654      15.066005459065062      61.390077988242673
   104   1      1.3559446032545022      17.646993141911043      61.480522063601242
   105   1   0.0011203409443158439      20.154299453133394      33.370272300222965
   106   1      1.4969814888999586      22.665181087501512      33.322102924231665
   107   1      1.3885362727481096      20.972916556442375      35.738742605183404
   108   1   -0.020323237848359668       23.50759391522978      35.654765935990724
   109   1    0.092311159470336857      21.752347029252213      38.097362701018355
   110   1      1.3925570201786748      24.253124306262222      38.053434291294508
   111   1     0.11321281598840645      20.116599846067349      40.388958865443179
   112   1      1.4500774081355199      22.685913076374504      40.417839557449632
   113   1      1.4156144403962474      20.923977315024405      42.715124087163055
   114   1   0.0064831830336676277      23.544690176963691      42.647489650166349
   115   1   -0.012771895662584533      21.699536893743115      45.120086240364685
   116   1      1.4469603966697824      24.339381058153716      44.927478314159963
   117   1    0.014378467991077613      20.132862884034594      47.427963348087957
   118   1      1.3214598609862651      22.659707603680147      47.391533124595782
   119   1      1.3845634881046154      20.963576604450196      49.738211864912522
   120   1    0.044028249490220349      23.471081880815934      49.713451814760063
   121   1   -0.047508861779231297      21.839329246958844      52.159199673911502
   122   1      1.4142021218777918      24.349620928582478      52.041359761408181
   123   1    0.086539996324960053      20.193830872458364      54.463004780334977
   124   1      1.4340327722504431      22.666736239066438       54.37803119090708
   125   1      1.3716165848170376      21.010993472698999       56.79467475953863
   126   1    -0.06144679467382335      23.534175092047192      56.839658558025491
   127   1   -0.016446198034026395      21.822094855322447      59.109631022651641
   128   1      1.4109221932437226       24.28863089640554      59.104692178151687
   129   1   -0.020854316774112015      20.094987266002455      61.374680882890438
   130   1      1.4036348320698251      22.694780190831423      61.414098158796278
   131   1   -0.027881992756380536      25.173469373587775      33.470179628181022
   132   1      1.3778716082639584      27.685916692085563      33.429080337368454
   133   1      1.3619967175719601      26.067000021635753      35.598702844804507
   134   1    0.039656649667730248      28.545796482050157      35.801320735608236
   135   1    0.025768498301317985      26.811860142148983      38.074365810085496
   136   1      1.3781431167341796      29.357673928607408      38.079786757262674
   137   1   -0.080497404225161898      25.227169224126921      40.440505389437533
   138   1      1.3308756208726435       27.69479863596171      40.390232039960509
   139   1      1.4515535528936845       26.03848373042517      42.803406424417489
   140   1   0.0053146489428548783      28.542156756019033      42.743840527949878
   141   1     0.01108838109218592      26.862454430206746      45.006414737152831
   142   1      1.4288676956595849      29.402646960354943      45.089556957675534
   143   1    0.087297858297677902      25.124906994584393      47.432330879331793
   144   1      1.4382310104921818      27.653832772778401      47.431845900975311
   145   1      1.3617668394764453      26.088826665421813      49.873113292676685
   146   1    0.019989196334804973      28.510832645593748      49.677584344990734
   147   1   -0.061321924672876671      26.785138382524497      52.077879046839072
   148   1      1.3389509371564756      29.292160956869679       52.02448950179209
   149   1   -0.052439757067485986      25.196709387603299      54.330783332302346
   150   1      1.3750076016666517      27.679370856976952      54.472761040264174
   151   1      1.4250879746077092       26.04501940223793      56.722818814387736
   152   1    0.049862244609143368      28.412695287632779      56.815225357691553
   153   1   -0.056566639491589625      26.907692591644846      59.078960294518538
   154   1      1.4214521374802349      29.441091572408656      59.095419309608808
   155   1    0.027050966863476945      25.092416963510363      61.495497127378449
   156   1      1.4038699775040127      27.648798536898582      61.403713849232133
   157   1      2.8692653580823388    0.033520188347697315      33.409272117748017
   158   1       4.265187240521894      2.5310498156408965      33.327298361004416
   159   1      4.1756761633039785     0.74705827294487459      35.693679485585804
   160   1      2.8577994787362182      3.3459473523433334      35.714161504157275
   161   1      2.8039530129585901       1.695476613330716      38.079815502801402
   162   1      4.2618026325432306      4.2198519370491052      38.074475226971472
   163   1      2.7208560360235188   -0.070251951173380331      40.380665355367462
   164   1      4.2232194111196506      2.4245093158618025      40.301796149535114
   165   1      4.1990417887085094     0.84809206018124328      42.761332447963525
   166   1       2.903188240455409      3.3872775321915523      42.750965869955849
   167   1      2.7825987904312819      1.6913812757312445      45.142772935443688
   168   1      4.2773365175526941      4.1885793865388843      45.072597679363135
   169   1      2.7782656040229656  -0.0061609854941245719      47.358167050540125
   170   1      4.2830399999261966      2.5378063882505768      47.420572007368882
   171   1      4.2370102972151029     0.84150820277453275      49.796970339310256
   172   1      2.8565894664392864      3.3831915386470448      49.605287322046536
   173   1      2.7781890644687199      1.7984810844965093      52.107491862998714
   174   1      4.1995365308591719       4.142930276321005      52.153757318761755
   175   1      2.8804170212675042    0.013492358626700304      54.463993389538615
   176   1      4.1772933814292248      2.5430547069104859      54.391968185561097
   177   1      4.1730284733369825     0.75403420086997375      56.813114071646886
   178   1      2.7966583074474323       3.374237009124478      56.799521353500658
   179   1      2.7359992590697404      1.6782258872880118      59.202014042315213
   180   1      4.1678780604637637      4.1626509829688834      59.141731984005276
   181   1      2.8651535409044007  -0.0025238482091644796      61.587191446843278
   182   1      4.3654166892765272      2.5506563592423221       61.42783516032852
   183   1      2.8166573930100554      5.0469179009905236      33.316858665501435
   184   1      4.2474522774641876      7.5718709048333137      33.280554749131547
   185   1      4.2765513953644776      5.8599105219328242      35.740376352182537
   186   1       2.850718697076621      8.4802203353527492      35.595595670239724
   187   1      2.8364174084086793      6.5964034202483894      38.085106484560363
   188   1      4.2247828749757792      9.1631047876104503      38.095808904039664
   189   1      2.9149423563638117      5.0373247226245637      40.421992374306512
   190   1      4.2446194560265953      7.5452251908703545       40.45664766710253
   191   1      4.2506047186946434      5.8603193137601641      42.819032763215311
   192   1      2.8110308041214473      8.5319591102891881       42.74995729586594
   193   1      2.8716162632259041       6.816405817426797      45.039776506403825
   194   1      4.2237162395819645      9.2816746373202683      45.050992407211432
   195   1      2.8072192328108594      4.9424308291442074      47.445592413273957
   196   1      4.1775123370672116       7.584189254098102      47.470411945444113
   197   1      4.2218468590245939      5.8631748580915843      49.778342266600255
   198   1      2.8166556645095318      8.3631963295683409      49.755948541932042
   199   1      2.7979201812267225      6.6823551599535591      52.202595081300167
   200   1      4.2785131590883516      9.2048195573609117      52.084446328247203
   201   1      2.8925557473999186      5.0791896751557433      54.451795979393928
   202   1       4.194234708078449       7.472074911544305      54.355865179957803
   203   1      4.2535485936470465      5.8894468178659416      56.798808317279693
   204   1      2.7917155068471891      8.3218262749025218      56.737502514427277
   205   1      2.8333119250533767      6.6775150187783527      59.063391852709977
   206   1       4.199836481673711      9.2563679997537616      59.030187063445695
   207   1      2.7128043344912758      4.9791792007513092      61.480489349058296
   208   1      4.2319174535681894      7.4668204058599859       61.51627089023102
   209   1      2.7780067755547844      10.034279407119772      33.446759764925012
   210   1      4.2726194916351714      12.598638748289073      33.307241513395049
   211   1       4.264806285454946      10.841724966704129      35.635280647739833
   212   1      2.7375275834594412      13.437138462995925      35.757220281208959
   213   1       2.833231249976357      11.736697392881451      38.023773399038603
   214   1      4.2535555446868987      14.254418617511138      38.096210689438664
   215   1      2.8343185000430697      10.090181613690328      40.364690726448217
   216   1      4.2236984649178266      12.573160107158236      40.402997828560025
   217   1      4.2245854989718312      10.922979606713076       42.74076380844361
   218   1      2.8298093010802456      13.441321929815857      42.776830368334799
   219   1      2.7967572245120134      11.678054040704177      45.075957374606105
   220   1      4.3061614969261157      14.253255118707209      45.077060306227594
   221   1      2.8507188314253358       10.02069547191973      47.329378725712353
   222   1      4.2294047268441206      12.621508834357648      47.401149700214795
   223   1      4.1251755721455243      10.918992765436322      49.687294178271365
   224   1      2.7385779721513779      13.376357853472463      49.740303188825912
   225   1      2.9546010812712278      11.814681368538295      52.027003050046901
   226   1      4.3412277884596344      14.265784380705119      52.073845168858227
   227   1       2.832975022827267      10.105578157849148      54.477429854094495
   228   1      4.2959146897187326      12.628952745239635      54.456933550353206
   229   1      4.2519157631061066      10.913154266521197      56.779139930501138
   230   1      2.7591441521048075      13.424845412612818      56.714076901846774
   231   1      2.7302290938699847      11.680982204233477      59.049208638784428
   232   1       4.315344542526419      14.194394259476152      59.101077644346582
   233   1      2.8440377417797791      10.091088239572864      61.468768260611611
   234   1      4.1452549951067192      12.519883451658815      61.296745965446682
   235   1      2.7693490491791142      15.016762781015856      33.360223364331233
   236   1       4.193650936157554       17.57983323352726      33.361210720278628
   237   1      4.2435303257269945      15.961415647298963      35.691033532363512
   238   1      2.8437406447867448      18.401054792069939      35.739120385164654
   239   1      2.8563964819155023      16.775166744631708      38.134403736390809
   240   1      4.2785073730348016      19.364823441034613       38.06920879486669
   241   1      2.7812677817323079      15.062531635808289      40.384660049294972
   242   1      4.2346041801317833      17.581029094788878      40.376114010759601
   243   1      4.2723798540002367      15.886176637923903      42.770635213674112
   244   1      2.7994542472547321      18.560501729857659      42.768548536224237
   245   1      2.8719310240613751      16.809543749823412      45.125867846068338
   246   1      4.1782762792557184      19.352598474046964      45.117472415131225
   247   1      2.8520152330382746        15.1271207835516      47.341296491070175
   248   1      4.2510046024910704      17.583400269281359       47.34027087697087
   249   1      4.1525481616826507      15.933380407400051      49.741852925387676
   250   1      2.8006423604017838      18.353233440141018      49.751151682066713
   251   1      2.8036813751585896      16.695515931348872      52.143550087799149
   252   1      4.2245096482174569      19.343827725219906      52.195409797563457
   253   1      2.8782539424540055      15.132769458935403      54.420942874159678
   254   1      4.2639015333238124         17.635146566503      54.466011078535381
   255   1      4.3325867510736602      15.920970077998243      56.760977141116371
   256   1      2.8215752278451443      18.424932988890141      56.805865021835046
   257   1      2.8299826734730971      16.664782510158719      59.253343433844229
   258   1      4.2895823316804123      19.304457344203495       59.09079146378334
   259   1      2.8315099769998264      15.045684882323823      61.416215704420061
   260   1      4.3150108361614086       17.64176405981117      61.419501107879007
   261   1      2.8578849607500363      20.112406539435657      33.355132932813781
   262   1      4.2538456514009582       22.70397854089493       33.35797843323104
   263   1      4.1335071494140045      21.016451619733282      35.835396166749305
   264   1       2.819943663239949      23.626859222376076      35.686266824179164
   265   1      2.8817764103400862       21.77380154532209      38.107679994133591
   266   1      4.2215142409873607      24.307079692507973      38.027136004517793
   267   1      2.7626885265775565       20.16500093523393      40.397662812976947
   268   1      4.2448101566864969      22.605785702140253      40.355253151433971
   269   1      4.2396846793673282      21.019420960765274      42.742159038510856
   270   1      2.8228349835096576      23.573740422101192      42.742916488066882
   271   1      2.8468892298496917      21.820062086816478      45.091472290698668
   272   1      4.2579575103777056      24.387683620169479      45.083458352172883
   273   1      2.8074940994017807      20.196535542163936       47.41765666233789
   274   1      4.1864612578239804      22.681001953806696      47.372374906558072
   275   1      4.2083730759427276      20.975036125741457      49.675041255087201
   276   1      2.7304563808257285      23.579666105478513       49.73789132453819
   277   1      2.8623749757057833      21.863271977492321      52.212792560171991
   278   1      4.2165778785573158      24.247871915327817      52.133667881936702
   279   1      2.7959245793767864       20.12223206170853      54.434842890268342
   280   1       4.287355812161973      22.716619295949847      54.355884796350708
   281   1      4.3123322752252413       20.93512456968849      56.749505109072288
   282   1      2.8231443022889211      23.508724638080206      56.800670838669561
   283   1      2.7413423929970819      21.796804996518755       59.06365017134015
   284   1      4.2270800110566382      24.241987464602939      59.032917034368339
   285   1      2.8823778009376637      20.089612397501725      61.406895240593094
   286   1      4.2688831571053676       22.72276602619916      61.449299717080578
   287   1      2.8442433611728082      25.089809821969485      33.413864191932049
   288   1      4.1812691963364887      27.618527735245902      33.407428368883956
   289   1      4.2780512357415628      25.905318621490558      35.657626512792618
   290   1      2.7976985808161778      28.553279176723994      35.789487691408716
   291   1      2.7792102562438004      26.839627776827818       38.07022054652051
   292   1      4.2601626658186511      29.331590996137777      38.053370355838183
   293   1      2.7935988205981754      25.168419437843564      40.385969148619239
   294   1      4.2684705640756118      27.683971720115306      40.370524897250867
   295   1      4.2181137240135991      25.946419401000281      42.707004741339261
   296   1      2.8609278931067381      28.474334919733739      42.631261800458923
   297   1      2.8347928061706145      26.857688774181934      45.051364214860349
   298   1       4.237956531479294       29.34896159397038      45.159041137233451
   299   1      2.8134514687288319      25.179719701451411      47.464859169105971
   300   1      4.3555509785745485      27.663676592713976       47.53932193587201
   301   1      4.1550708098939042      25.993956670968704      49.678315777583073
   302   1       2.755612201591696      28.545295473790809      49.737726819091336
   303   1      2.8631499520817956      26.879279343140361      52.094366616526493
   304   1      4.3037337992535543      29.364841148094172      52.092989975689299
   305   1      2.8240750021027901      25.176725220877358      54.498371613497973
   306   1       4.163117625008665      27.706820165118611      54.482876640828223
   307   1      4.2212454308608702      26.061032659168013      56.748824226349008
   308   1      2.8569573451986123      28.454119000792097       56.77457588494245
   309   1      2.7685582101572135      26.865115238534042       59.07969266768248
   310   1      4.2160807027001566      29.378655254598801      59.116227663154945
   311   1      2.7255819252835258      25.227222086531224       61.37260695672186
   312   1      4.2183248386201599      27.743031309862179      61.451263912305983
   313   1      5.6071907077868914  -0.0057248920101016926      33.401730506907732
   314   1      7.0693441389780807      2.5480700116445942      33.422355013230728
   315   1      7.0734140901119886     0.86104988177829822      35.779145853233501
   316   1      5.6991366950018376       3.419099299075588      35.714555098069944
   317   1      5.5870513697319462      1.6546400692441019      38.079147455276974
   318   1      7.0524190558962205      4.2565597710136691      38.028649698768824
   319   1      5.6126512039801479   -0.057326358756924253      40.464873694066121
   320   1      7.0970561600236408      2.6148575382154884      40.434800708562136
   321   1      7.0562185613879524      0.8649097372927208      42.844136276192799
   322   1      5.5749375426316181      3.2655947845745561      42.756450006356651
   323   1      5.6208217366681898      1.6428481735837785      45.114608602378162
   324   1      7.0234525174181455      4.1878853147314334      45.134988956154096
   325   1      5.6681034978684002   -0.015579282321042519      47.354072762736422
   326   1      7.0272186807934292      2.4875252834333703      47.386583421117621
   327   1      7.1114258486702395     0.79601312282582593      49.797998876585275
   328   1      5.6578001112560807      3.3484958942730692      49.768949393892711
   329   1       5.634270264104341      1.6346746897395816      52.061677936723527
   330   1      7.0218676679472321      4.1601317625251522      52.119476203692962
   331   1      5.5955664196979527    -0.10687324962835169      54.470091455215695
   332   1        7.08587917299044      2.4876537110428405      54.369182319266535
   333   1      7.0191558407438359     0.87775685132639136       56.79013295031455
   334   1      5.6869346263264635      3.3346703105460902      56.748917613471917
   335   1      5.6045019902678064      1.6027958316544531      59.045931967587116
   336   1      7.0539694760151335      4.1561888555098259      59.125918414622646
   337   1      5.6676723497674546   -0.046952909784952403      61.460412536720852
   338   1      7.1381459096455702       2.498943928212451      61.513111041437675
   339   1      5.6769746805069081      4.9913655452869667      33.392248334653402
   340   1      7.0500113362531893      7.4366203889372109      33.411181218960479
   341   1      7.0656289202253868      5.8305232535824247      35.695621902632205
   342   1      5.6882847922166686      8.2973074157442834      35.734019551697358
   343   1      5.6803379552272162      6.6775514570805754      38.045739069550542
   344   1      7.0121063623701989      9.2152402463696088      38.122747443332543
   345   1      5.7033999720710327      4.9902293818773966      40.415234656473942
   346   1      7.1060190249974227      7.6298134998660387      40.450967350279285
   347   1      7.0761637572403178      5.8214798923458311      42.803145687786987
   348   1      5.5808203943399013      8.3750161474601299      42.671843959554373
   349   1      5.6202386705684795      6.7723608748097508      45.028752203459383
   350   1      7.1191059483896275      9.2627468073636958      45.032990838597605
   351   1      5.6405042591712728      5.0023635379532374      47.449245867556158
   352   1      7.0321277661292543      7.5395950909650296      47.498469521200619
   353   1      6.9744512062231241      5.8742799571739281      49.771755447566058
   354   1      5.5406182333963008      8.3212506907597348      49.795348864583339
   355   1      5.6195863601491576      6.6754888334177096      52.176229994546993
   356   1      7.0478398661510955      9.1861094389458842       52.04336410736002
   357   1      5.6480956364802628      4.9357131214992354      54.453644622400439
   358   1      7.0781969857333049      7.5768485264289582      54.510850434237156
   359   1      7.0592459758821198      5.9053608265485682      56.713807272166576