LAMMPS (10 Dec 2025)
OMP_NUM_THREADS environment is not set. Defaulting to 1 thread.
  using 1 OpenMP thread(s) per MPI task
units metal
boundary p p s
atom_style atomic
timestep 0.002
read_data data.interface
Reading data file ...
  orthogonal box = (0 0 0) to (31.066736 30.196583 63.439223)
  1 by 1 by 4 MPI processor grid
  reading atoms ...
  4164 atoms
  read_data CPU = 0.017 seconds

pair_style eam/alloy
pair_coeff * * /mnt/c/Users/iwash/Documents/Repositories/Lammps/potentials/AlCu.eam.alloy Al Cu
Reading eam/alloy potential file /mnt/c/Users/iwash/Documents/Repositories/Lammps/potentials/AlCu.eam.alloy with DATE: 2008-10-01

neighbor 2.0 bin
neigh_modify delay 10 check yes

thermo 100
thermo_style custom step temp pe press pxx pyy lx ly lz

print '=== Phase 0: Shake (High-T limit) ==='
=== Phase 0: Shake (High-T limit) ===
velocity all create 1000.0 44137 dist gaussian
fix shake all nve/limit 0.1
run 1000
Neighbor list info ...
  update: every = 1 steps, delay = 10 steps, check = yes
  max neighbors/atom: 2000, page size: 100000
  master list distance cutoff = 8.6825
  ghost atom cutoff = 8.6825
  binsize = 4.34125, bins = 8 7 14
  1 neighbor lists, perpetual/occasional/extra = 1 0 0
  (1) pair eam/alloy, perpetual
      attributes: half, newton on
      pair build: half/bin/atomonly/newton
      stencil: half/bin/3d
      bin: standard
Per MPI rank memory allocation (min/avg/max) = 3.508 | 3.722 | 3.945 Mbytes
   Step          Temp          PotEng         Press           Pxx            Pyy             Lx             Ly             Lz      
         0   1000          -14119.893      16955.305      9453.1716      23855.67       31.066736      30.196583      59.730892    
       100   609.7455      -13909.785      25872.109      19715.795      33517.531      31.066736      30.196583      61.470354    
       200   593.65915     -13900.938      17515.986      11462.291      28825.725      31.066736      30.196583      62.003251    
       300   602.66107     -13905.53       7471.0729      1568.9889      20281.681      31.066736      30.196583      62.198831    
       400   574.1588      -13890.005     -1968.2677     -5987.8696      12385.092      31.066736      30.196583      62.554759    
       500   567.22391     -13886.193     -7509.3931     -10284.079      7587.8722      31.066736      30.196583      63.507157    
       600   550.5988      -13877.113     -11377.026     -13554.533      3938.9888      31.066736      30.196583      63.703881    
       700   549.14479     -13876.34      -8268.4949     -10621.134      7021.0464      31.066736      30.196583      63.751879    
       800   575.99617     -13890.99       500.55868     -2296.5165      13848.053      31.066736      30.196583      63.645903    
       900   593.43168     -13900.504      5704.4303      2301.7139      17719.834      31.066736      30.196583      62.482868    
      1000   614.86057     -13912.269      11755.784      7053.1059      21738.371      31.066736      30.196583      62.24041Pair    | 1.9284     | 2.2595     | 2.6039     |  22.0 | 80.38
Neigh   | 0.033967   | 0.054307   | 0.076045   |   8.0 |  1.93
Comm    | 0.12261    | 0.46751    | 0.82961    |  49.1 | 16.63
Output  | 0.00027786 | 0.00034822 | 0.00055702 |   0.0 |  0.01
Modify  | 0.005445   | 0.0066372  | 0.007456   |   1.0 |  0.24
Other   |            | 0.0227     |            |       |  0.81

Nlocal:           1041 ave        1294 max         795 min
Histogram: 1 0 1 0 0 0 0 1 0 1
Nghost:        3591.25 ave        4344 max        2374 min
Histogram: 1 0 0 0 0 1 0 0 0 2
Neighs:          95946 ave      138162 max       60999 min
Histogram: 2 0 0 0 0 0 0 0 1 1

Total # of neighbors = 383784
Ave neighs/atom = 92.167147
Neighbor list builds = 29
Dangerous builds = 0
=== Phase 1: 0K Relaxation ===
Switching to 'neigh_modify every 1 delay 0 check yes' setting during minimization
Setting up cg style minimization ...
  Unit style    : metal
  Current step  : 1000
WARNING: Energy due to 3 extra global DOFs will be included in minimizer energies
 (src/min.cpp:222)
Per MPI rank memory allocation (min/avg/max) = 4.633 | 4.847unfix shake
velocity all set 0 0 0

# x,y方向の箱寸法 + 原子位置を同時最適化（z方向はshrink-wrap）
print '=== Phase 1: 0K Relaxation ==='
=== Phase 1: 0K Relaxation ===
fix relax all box/relax x 0.0 y 0.0 vmax 0.001
minimize 1.0e-8 1.0e-10 10000 100000
Switching to 'neigh_modify every 1 delay 0 check yes' setting during minimization
WARNING: Energy due to 3 extra global DOFs will be included in minimizer energies
 (src/min.cpp:222)
Per MPI rank memory allocation (min/avg/max) = 4.633 | 4.847 | 5.07 Mbytes
   Step          Temp          PotEng         Press           Pxx            Pyy             Lx             Ly             Lz      
      1000   0             -13912.269      5708.5683      1331.2472      15911.568      31.066736      30.196583      62.181876    
      1100   0             -14025.569     -3922.582      -1315.5287     -262.42287      30.812302      30.363604      62.181876    
      1200   0             -14070.19      -4977.7388     -1015.3183     -1776.8259      30.721126      30.338789      62.1818
Minimization stats:
  Stopping criterion = linesearch alpha is zero
  Energy initial, next-to-last, final = 
     -13912.2691001011  -14185.3741101873  -14185.3741101873
  Force two-norm initial, final = 584.87124 68.842026
  Force max component initial, final = 579.86717 60.756819
  Final line search alpha, max atom move = 1.9620726e-12 1.1920929e-10
  Iterations, force evaluations = 413 511

MPI task timing breakdown:
Section |  min time  |  avg time  |  max time  |%varavg| %total
---------------------------------------------------------------
Pair    | 1.5488     | 1.5491     | 1.5499     |   0.0 | 95.99
Neigh   | 0          | 0          | 0          |   0.0 |  0.00
Comm    | 0.019413   | 0.019911   | 0.020847   |   0.4 |  1.23
Output  | 9.2151e-05 | 0.0001165  | 0.00018645 |   0.0 |  0.01
Modify  | 0          | 0          | 0          |   0.0 |  0.00
Other   |            | 0.04473    |            |       |  2.77

Nlocal:           1041 ave        1293 max         795 min
Histogram: 1 0 1 0 0 0 0 1 0 1
Nghost:        3595.75 ave        4350 max        2382 min
Histogram: 1 0 0 0 0 1 0 0 0 2
Neighs:        96005.8 ave      138253 max       61104 min
Histogram: 2 0 0 0 0 0 0 0 1 1

Total # of neighbors = 384023
Ave neighs/atom = 92.224544
Neighbor list builds = 0
Dangerous builds = 0
=== Phase 2: Annealing at 600.0K for 10.0ps ===
Setting up Verlet run ...
  Unit style    : metal
  Current step  : 0
  Time step     : 0.002
Per MPI rank memory allocation (min/avg/max) = 3.508 | 3.722 | 3.945 Mbytes
   Step          Temp          PotEng         Press           Pxx            Pyy             Lx             Ly             Lz      
         0   600           -14185.374      1899.6146      6959.9571      7829.5466      30.537382      30.144405      61.652666    
       100   391.3607      -14018.5unfix relax

# 界面近傍の原子配置を緩和（ミスフィット軽減）
print '=== Phase 2: Annealing at 600.0K for 10.0ps ==='
=== Phase 2: Annealing at 600.0K for 10.0ps ===
reset_timestep 0
velocity all create 600.0 44137 dist gaussian
fix ann all npt temp 600.0 600.0 0.1 x 0.0 0.0 1.0 y 0.0 0.0 1.0
run 5000
Per MPI rank memory allocation (min/avg/max) = 3.508 | 3.722 | 3.945 Mbytes
   Step          Temp          PotEng         Press           Pxx            Pyy             Lx             Ly             Lz      
         0   600           -14185.374      1899.6146      6959.9571      7829.5466      30.537382      30.144405      61.652666    
       100   391.3607      -14018.526     -6148.6651     -4055.7024     -3975.1966      30.934828      30.568531      61.727723    
       200   460.73936     -13963.241      322.31047      748.28282      675.2092       31.03039       30.695572      61.527047    
       300   563.88589     -13921.928      2451.1776      2099.3688      2141.0089      31.141338      30.855793      61.063632    
       400   596.4224      -13872.523      656.37856     -758.88776     -674.6883       31.334801      31.056923      61.313492    
       500   616.80445     -13870.939      1873.8897     -324.06548     -553.44974      31.389173      31.134725      60.966217    
       600   607.60353     -13900.673      2128.6979     -1251.5781     -876.69731      31.392557      31.157349      60.598726    
       700   599.62594     -13909.201      2104.1395     -1074.0725     -1106.7546      31.370571      31.134884      60.097665    
       800   598.95776     -13884.603      3124.365       210.7411       1322.7486      31.362705      31.109026      60.870782    
       900   611.80218     -13877.175      2403.2042      1153.5668      30.657925      31.315062      31.145542      61.234004    
      1000   600.55276     -13894.616     -266.16159     -2427.9025     -972.90153      31.356309      31.073058      60.904661    
      1100   603.8909      -13894.122      1461.2646      1214.3787      1569.5805      31.226671      30.971611      61.141686    
      1200   605.03301     -13877.536     -1159.0717      250.89464     -620.6192       31.137083      30.945305      62.147374    
      1300   593.00002     -13883.015     -1650.0812     -365.44402      64.313433      31.052021      30.834524      62.189668    
      1400   595.02856     -13890.115     -1491.5779      489.57676      213.66638      30.977098      30.785971      61.928785    
      1500   609.05327     -13878.48      -3079.3158     -1401.5369     -497.33299      30.997769      30.794365      62.274615    
      1600   603.04859     -13875.78      -2846.985      -46.871913     -1066.2415      30.973485      30.795464      62.388664    
      1700   591.0539      -13880.306     -1180.1079      1191.7166      1567.6154      31.025568      30.754459      62.416942    
      1800   608.89929     -13879.795     -670.6949       966.24865      709.88257      31.068621      30.827964      61.874348    
      1900   601.95864     -13881.85      -2174.4969     -1484.3864     -1859.8346      31.138693      30.917211      61.63017     
      2000   592.90498     -13896.43       1061.8038      1259.9205      2071.0512      31.127098      30.84729       61.305997    
      2100   597.8867      -13893.939      238.91282      285.0436      -717.82353      31.163      2700   594.82514     -13893.833      1160.5051     -2138.2797      936.80972      31.396989      30.970079      60.635687    
      2800   592.79901     -13892.208      1801.2805      2127.3085     -301.7553       31.225536      30.972359      61.2632      
      2900   606.41159     -13886.699     -960.62195     -1401.0874     -939.78621      31.227044      30.925176      61.021511    
      3000   602.96024     -13888.722     -101.90578     -260.4935       866.16595      31.164496      30.849646      61.424111    
      3100   595.32522     -13890.182     -405.44329      1849.4341      644.26793      31.089015      30.836489      61.847951    
      3200   597.30255     -13876.799       2700   594.82514     -13893.833      1160.5051     -2138.2797      936.80972      31.396989      30.970079      60.635687    
      2800   592.79901     -13892.208      1801.2805      2127.3085     -301.7553       31.225536      30.972359      61.2632      
      2900   606.41159     -13886.699     -960.62195     -1401.0874     -939.78621      31.227044      30.925176      61.021511    
      3000   602.96024     -13888.722     -101.90578     -260.4935       866.16595      31.164496      30.849646      61.424111    
      3100   595.32522     -13890.182     -405.44329      1849.4341      644.26793      31.089015      30.836489      61.847951    
      3200   597.30255     -13876.799     -2559.8782     -1587.5506     -387.91878      31.139983      30.81052       62.311685    
      3300   601.89207     -13879.896     -1439.9984      1605.3568      170.7376       31.008265      30.786728      62.016169    
      3400   596.08414     -13891.97      -2401.6238     -930.49294      129.63348      31.043956      30.733664      62.247296    
      3500   598.21607     -13887.265     -2429.9609     -737.24081     -689.98875      31.057878      30.783872      62.735795    
      3600   605.88417     -13887.822      514.60935      2629.8162      1229.358       31.023529      30.809369      62.02458     
      3700   594.56038     -13889.213     -2377.6035     -2852.0909     -679.53959      31.16172       30.852404      61.556045    
      3800   596.32423     -13896.318      1201.1246      2478.5612      42.367175      31.095094      30.939115      61.50874     
      3900   605.31152     -13883.877      1688.6327     -186.34066      2046.2035      31.252574      30.991803      61.248724    
      4000   598.75471     -13888.707     -1008.2302     -2201.7028     -2805.4476      31.284117      31.13906       60.807553    
      4100   596.99518     -13886.871      3615.815       2747.9373      1852.5246      31.22014       31.096144      60.701251    
      4200   605.23364     -13885.692      660.94943     -3181.9168      462.88327      31.353013      31.116835      60.445194    
      4300   617.01975     -13888.704      1325.0419      320.93674     -2192.8148      31.261292      31.188733      60.764571    
      4400   603.37234     -13892.172      2095.3388     -415.26248      931.42859      31.291568      31.081626      60.565138    
      4500   603.16705     -13886.309     -527.9318      -2246.7248     -1334.8209      31.316Loop time of 13.2238 on 4 procs for 5000 steps with 4164 atoms

Performance: 65.337 ns/day, 0.367 hours/ns, 378.106 timesteps/s, 1.574 Matom-step/s
105.2% CPU use with 4 MPI tasks x 1 OpenMP threads

MPI task timing breakdown:
Section |  min time  |  avg time  |  max time  |%varavg| %total
---------------------------------------------------------------
Pair    | 8.6409     | 10.434     | 12.104     |  48.6 | 78.90
Neigh   | 0.14591    | 0.25437    | 0.36186    |  17.7 |  1.92
Comm    | 0.52068    | 2.1567     | 3.7014     | 102.5 | 16.31
Output  | 0.0011118  | 0.0014575  | 0.0024895  |   1.6 |  0.01
Modify  | 0.17941    | 0.33901    | 0.77912    |  43.7 |  2.56
Other   |            | 0.03855    |            |       |  0.29

Nlocal:           1041 ave        1282 max         811 min
Histogram: 1 1 0 0 0 0 0 1 0 1
Nghost:        3558.25 ave        4557 max        2312 min
Histogram: 1 0 0 0 1 0 0 0 1 1
Neighs:          94717 ave      135519 max       57868 min
Histogram: 2 0 0 0 0 0 0 0 1 1

Total # of neighbors = 378868
Ave neighs/atom = 90.986551
Neighbor list builds = 155
Dangerous builds = 0
=== Phase 2b: Cooling 600.0K -> 300.0K ===
Setting up Verlet run ...
  Unit style    : metal
  Current step  : 5000
  Time step     : 0.002
Per MPI rank memory allocation (min/avg/max) = 3.509 | 3.723 | 3.947 Mbytes
   Step          Temp          PotEng         Press           Pxx            Pyy             Lx             Ly             Lz      
      5000   593.97219     -13889.069     -1786.3016     -446.39991     -439.72304      31.071692      30.810265      61.477913    
      5100   601.75165     -13884.607     -679.70582      1009.9537      796.98433      31.054224      30.79917       61.93327     
      5200   583.33367     -13882.829     -2788.3923     -1699.3449     -1495.2609    unfix ann

print '=== Phase 2b: Cooling 600.0K -> 300.0K ==='
=== Phase 2b: Cooling 600.0K -> 300.0K ===
fix cool all npt temp 600.0 300.0 0.1 x 0.0 0.0 1.0 y 0.0 0.0 1.0
run 5000
Per MPI rank memory allocation (min/avg/max) = 3.509 | 3.723 | 3.947 Mbytes
   Step          Temp          PotEng         Press           Pxx            Pyy             Lx             Ly             Lz      
      5000   593.97219     -13889.069     -1786.3016     -446.39991     -439.72304      31.071692      30.810265      61.477913    
      5100   601.75165     -13884.607     -679.70582      1009.9537      796.98433      31.054224      30.79917       61.93327     
      5200   583.33367     -13882.829     -2788.3923     -1699.3449     -1495.2609      31.102301      30.828646      61.797958    
      5300   581.08336     -13891.766     -660.92348      1044.4521      523.47437      31.091605      30.798837      61.962315    
      5400   581.169       -13899.844     -766.32086     -104.91363      733.13739      31.129616      30.781805      61.783407    
      5500   572.57435     -13909.755     -3277.5809     -2742.468      -3465.4534      31.132432      30.892805      61.609558    
      5600   569.86947     -13913.077      2281.253       1572.9609      3265.894       31.143821      30.796396      61.271367    
      5700   556.80869     -13914.661      286.02805      36.544134     -206.79801      31.211746      30.879816      61.261828    
      5800   554.11378     -13924.455      33.415711     -1194.0364     -717.57789      31.236842      30.920441      60.796043    
      5900   557.27823     -13925.009      2245.3971      1290.4404      707.48567      31.240267      30.949278      60.80677     
      6000   540.33705     -13924.34      -150.42787     -2140.0323     -943.52583      31.30379       30.999881      60.841004    
      6100   528.93385     -13927.916      2661.0885      1431.0495      1209.2379      31.248349      30.943976      60.565449    
      6200   518.55294     -13929.562      2542.7656      1262.7691      1249.459       31.223883      30.913166      60.530817    
      6300   520.53398     -13938.936      855.03639      872.35338     -672.40911      31.151205      30.92168       60.63925     
      6400   524.61487     -13945.982      958.32266     -481.54741      1857.6258      31.168999      30.780454      60.805677    
      6500   502.82322     -13944.632     -1068.0917      790.03779     -2062.6173      31.063983      30.856152      61.314305    
      6600   512.88985     -13950.403      654.35787      1929.3829      1405.4648      31.019182      30.772728      61.878791    
      6700   491.50346     -13951.155     -1480.2397     -1302.3432      804.69275      31.04728       30.722173      61.33733     
      6800   486.04042     -13953.109     -2479.9515      163.987       -2331.3397      30.964448      30.802703      61.295463    
      6900   493.96007     -13965.65       688.06864      826.78735      4011.0532      30.978476      30.624452      61.658738    
      7000   480.80046     -13968.859     -4402.0554     -2306.8301     -4168.5749      30.97147       30.785772      61.904205    
      7100   485.43025     -13969.265      868.65576      1869.8907      1619.4911      30.972274      30.707033      61.332609    
      7200   471.58252     -13971.119     -915.03578        7800   429.9448      -13995.731      886.61159      55.407687     -1152.3074      31.116576      30.84954       60.559017    
      7900   425.33423     -13998.368      1639.8952      127.87487      987.93235      31.13875       30.793916      60.363995    
      8000   422.49173     -14003.76      -364.94773     -897.36983     -984.89589      31.11387       30.792971      60.401129    
      8100   416.56244     -14004.748     -416.80982     -409.24288     -664.61514      31.085088      30.757578      60.811786    
      8200   411.96583     -14007.917      1251.1354      1513.7659      1924.7993      31.022701      30.6628        60.730424    
      8300   400.78148     -14010.414     -1354.8546      32.927897     -1119.1678      30 429.9448      -13995.731      886.61159      55.407687     -1152.3074      31.116576      30.84954       60.559017    
      7900   425.33423     -13998.368      1639.8952      127.87487      987.93235      31.13875       30.793916      60.363995    
      8000   422.49173     -14003.76      -364.94773     -897.36983     -984.89589      31.11387       30.792971      60.401129    
      8100   416.56244     -14004.748     -416.80982     -409.24288     -664.61514      31.085088      30.757578      60.811786    
      8200   411.96583     -14007.917      1251.1354      1513.7659      1924.7993      31.022701      30.6628        60.730424    
      8300   400.78148     -14010.414     -1354.8546      32.927897     -1119.1678      30.988316      30.682418      61.097997    
      8400   398.40835     -14017.379     -668.5973       171.33929      704.20165      30.956526      30.62362       60.953098    
      8500   393.85938     -14019.96      -423.92771      968.70895      1040.2958      30.937472      30.6083        61.001329    
      8600   388.84956     -14024.934     -1763.8973     -233.06303     -721.92902      30.950682      30.634462      60.934353    
      8700   387.09371     -14028.225     -1720.5686     -1327.2982      100.04686      30.981768      30.627508      60.965401    
      8800   375.44769     -14030.114     -709.95737      1073.5428     -1436.0458      30.945265      30.690573      61.02197     
      8900   369.70874     -14034.808      296.95378     -511.1517       1703.6437      31.012714      30.643012      60.66022     
      9000   360.59131     -14037.707     -399.68456     -39.705974     -1440.5128      30.984805      30.736955      60.477862    
      9100   358.11591     -14043.393      218.92126     -1030.1283      15.991049      31.021193      30.718885      60.263744    
      9200   352.7326      -14047.992      1259.1924      72.590827      549.61967      31.021191      30.751354      60.236708    
      9300   349.87678     -14052.208      706.18696      187.83799     -1203.0812      31.002182      30.804519      60.25736     
      9400   337.69283     -14051.09       714.68399     -1358.5099      331.18761      31.076881      30.744118      60.13202     
      9500   338.87065     -14057.487      1499.6184      925.21547      387.24437      30.982783      30.754812      60.21154     
      9600   328.24004     -14059.52       451.72555      296.29197     -821.8917       30.958216      30.748807      60.281937    
      9700   322.49378     -14064.248     -476.9152      -1746.872       337.7794       30.993305      30.662371      60.281937    
      9800   Pair    | 8.879      | 10.744     | 12.662     |  54.3 | 79.04
Neigh   | 0.11066    | 0.19396    | 0.27948    |  16.4 |  1.43
Comm    | 0.40693    | 2.2825     | 4.1617     | 113.9 | 16.79
Output  | 0.0011345  | 0.0014891  | 0.0025175  |   1.5 |  0.01
Modify  | 0.17882    | 0.32987    | 0.72694    |  40.0 |  2.43
Other   |            | 0.04183    |            |       |  0.31

Nlocal:           1041 ave        1296 max         792 min
Histogram: 1 0 1 0 0 0 0 1 0 1
Nghost:        3562.75 ave        4617 max        2281 min
Histogram: 1 0 0 1 0 0 0 1 0 1
Neighs:          96580 ave      140420 max       61348 min
Histogram: 2 0 0 0 0 0 0 1 0 1

Total # of neighbors = 386320
Ave neighs/atom = 92.776177
Neighbor list builds = 115
Dangerous builds = 0
=== Phase 3: Define Grips ===
432 atoms in group bottom
286 atoms in group top
3446 atoms in group mobile
Bottom grip: 432 atoms
Top grip:    286 atoms
Mobile:      3446 atoms
=== Phase 4: Equilibration with Grips ===
Setting up Verlet run ...
  Unit style    : metal
  Current step  : 0
  Time step     : 0.002
Per MPI rank memory allocation (min/avg/max) = 3.509 | 3.723 | 3.947 Mbytes
   Step          Temp          PotEng         Press           Pxx            Pyy             Lx             Ly             Lz      
         0   250.79175     -14072.058     -1135.4806      299.12174     -256.41053      30.883148      30.611179      60.676486    
       100   272.66225     -14060.561     -1420.0707     -1018.6463     -239.47629    unfix cool

# 焼きなまし後の座標を基準にグリップ領域を定義
print '=== Phase 3: Define Grips ==='
=== Phase 3: Define Grips ===
variable zmin equal bound(all,zmin)
variable zmax equal bound(all,zmax)
variable grip_thick equal 5.0
variable zlo_grip equal ${zmin}+${grip_thick}
variable zlo_grip equal 1.4281648430394+${grip_thick}
variable zlo_grip equal 1.4281648430394+5
variable zhi_grip equal ${zmax}-${grip_thick}
variable zhi_grip equal 62.0919631279496-${grip_thick}
variable zhi_grip equal 62.0919631279496-5

region rgn_bot block INF INF INF INF INF ${zlo_grip}
region rgn_bot block INF INF INF INF INF 6.4281648430394
region rgn_top block INF INF INF INF ${zhi_grip} INF
region rgn_top block INF INF INF INF 57.0919631279496 INF
group bottom region rgn_bot
432 atoms in group bottom
group top region rgn_top
286 atoms in group top
group mobile subtract all bottom top
3446 atoms in group mobile

print 'Bottom grip: $(count(bottom)) atoms'
Bottom grip: 432 atoms
print 'Top grip:    $(count(top)) atoms'
Top grip:    286 atoms
print 'Mobile:      $(count(mobile)) atoms'
Mobile:      3446 atoms

print '=== Phase 4: Equilibration with Grips ==='
=== Phase 4: Equilibration with Grips ===
reset_timestep 0
velocity bottom set 0.0 0.0 0.0
velocity top set 0.0 0.0 0.0
# グリップ: nve（時間積分）+ setforce 0（力ゼロ）→ 等速運動
fix nve_bot bottom nve
fix nve_top top nve
fix freeze_bot bottom setforce 0.0 0.0 0.0
fix freeze_top top setforce 0.0 0.0 0.0
fix eq mobile npt temp 300.0 300.0 0.1 x 0.0 0.0 1.0 y 0.0 0.0 1.0
run 5000
Per MPI rank memory allocation (min/avg/max) = 3.509 | 3.723 | 3.947 Mbytes
   Step          Temp          PotEng         Press           Pxx            Pyy             Lx             Ly             Lz      
         0   250.79175     -14072.058     -1135.4806      299.12174     -256.41053      30.883148      30.611179      60.676486    
       100   272.66225     -14060.561     -1420.0707     -1018.6463     -239.47629      30.936101      30.6      1700   299.20818     -14040.637     -2197.1291     -1249.5714     -1925.883       30.931356      30.686454      60.676486    
      1800   300.73223     -14039.956     -2387.0637     -2195.91       -1451.0991      30.967431      30.65811       60.676486    
      1900   294.63614     -14044.288     -1076.7234      119.68157     -837.31261      30.906029      30.665517      60.676486    
      2000   296.68022     -14042.771      135.85297      116.07611      1650.7735      30.938571      30.619061      60.676486    
      2100   300.96333     -14040.666      419.5241       1472.4433      858.73361      30.902334      30.653813      60.676486    
      2200   300.84927     -14042.318      43.17397       841.75668      567.66994      30.920215      30.649097      60.676486    
      2300   298.75051     -14044.104     -945.27037     -585.67412      190.72459      30.950753      30.650732      60.676486    
      2400   304.14713     -14040.622     -1558.6765     -1043.5607     -928.82279      30.96163       30.66478       60.676486    
      2500   301.83741     -14042.246     -1709.5508     -971.34176     -1035.9215      30.959479      30.669598      60.676486    
      2600   297.4317      -14042.207     -772.83014     -315.76955     -320.36246      30.930801      30.658844      60.676486    
      2700   302.48116     -14046.121     -582.47676      472.65538     -385.5792       30.899797      30.661465      60.676486    
      2800   297.97455     -14040.315      30.698068     -103.2315       1586.5836      30.953164      30.610381      60.676486    
      2900   303.82347     -14044.413     -628.51818      1337.8154     -925.83628      30.883105      30.679924      60.676486    
      3000   302.79086     -14048.171     -901.267       -1340.0106      1428.9156      30.963159      30.594391      60.676486    
      3100   296.12934     -14041.619     -600.00274      974.68677     -702.17592      30.888111      30.686728      60.676486    
      3200   302.64082     -14044.243     -398.57809     -699.46225      1251.0905      3014     -1925.883       30.931356      30.686454      60.676486    
      1800   300.73223     -14039.956     -2387.0637     -2195.91       -1451.0991      30.967431      30.65811       60.676486    
      1900   294.63614     -14044.288     -1076.7234      119.68157     -837.31261      30.906029      30.665517      60.676486    
      2000   296.68022     -14042.771      135.85297      116.07611      1650.7735      30.938571      30.619061      60.676486    
      2100   300.96333     -14040.666      419.5241       1472.4433      858.73361      30.902334      30.653813      60.676486    
      2200   300.84927     -14042.318      43.17397       841.75668      567.66994      30.920215      30.649097      60.676486    
      2300   298.75051     -14044.104     -945.27037     -585.67412      190.72459      30.950753      30.650732      60.676486    
      2400   304.14713     -14040.622     -1558.6765     -1043.5607     -928.82279      30.96163       30.66478       60.676486    
      2500   301.83741     -14042.246     -1709.5508     -971.34176     -1035.9215      30.959479      30.669598      60.676486    
      2600   297.4317      -14042.207     -772.83014     -315.76955     -320.36246      30.930801      30.658844      60.676486    
      2700   302.48116     -14046.121     -582.47676      472.65538     -385.5792       30.899797      30.661465      60.676486    
      2800   297.97455     -14040.315      30.698068     -103.2315       1586.5836      30.953164      30.610381      60.676486    
      2900   303.82347     -14044.413     -628.51818      1337.8154     -925.83628      30.883105      30.679924      60.676486    
      3000   302.79086     -14048.171     -901.267       -1340.0106      1428.9156      30.963159      30.594391      60.676486    
      3100   296.12934     -14041.619     -600.00274      974.68677     -702.17592      30.888111      30.686728      60.676486    
      3200   302.64082     -14044.243     -398.57809     -699.46225      1251.0905      30.946917      30.6      4800   309.325       -14041.263     -697.86763      548.22657     -217.34606      30.927657      30.67095       60.676486    
      4900   299.8067      -14042.043     -658.05706     -493.40753      641.84377      30.950406      30.646213      60.676486    
      5000   292.16966     -14040.436     -418.22062      645.64518     -430.13247      30.91323       30.674104      60.676486    
Loop time of 12.8927 on 4 procs for 5000 steps with 4164 atoms

Performance: 67.015 ns/day, 0.358 hours/ns, 387.816 timesteps/s, 1.615 Matom-step/s
103.0% CPU use with 4 MPI tasks x 1 OpenMP threads

MPI task timing breakdown:
Section |  min time  |  avg time  |  max time  |%varavg| %total
---------------------------------------------------------------
Pair    | 8.7055     | 10.346     | 12.108     |  49.4 | 80.25
Neigh   | 0.053772   | 0.091169   | 0.13214    |  10.9 |  0.71
Comm    | 0.38029    | 2.0511     | 3.7473     | 104.1 | 15.91
Output  | 0.0011224  | 0.0015305  | 0.0027432  |   1.8 |  0.01
Modify  | 0.20592    | 0.36263    | 0.78254    |  40.3 |  2.81
Other   |            | 0.04008    |            |       |  0.31

Nlocal:           1041 ave        1284 max         792 min
Histogram: 1 0 1 0 0 0 0 1 0 1
Nghost:         3551.5 ave        4581 max        2272 min
Histogram: 1 0 0 0 1 0 0 0 1 1
Neighs:        96334.5 ave      139561 max       61200 min
Histogram: 2 0 0 0 0 0 0 1 0 1

Total # of neighbors = 385338
Ave neighs/atom = 92.540346
Neighbor list builds = 55
Dangerous builds = 0
=== Phase 5: Tensile Test ===
Initial grip distance L0 = 56.6032066411724 Ang
Pull velocity = 0.113206413282345 Ang/ps (erate=0.002/ps)
Setting up Verlet run ...
  Unit style    : metal
  Current step  : 0
  Time step     : 0.002
Per MPI rank memory allocation (min/avg/max) = 5.009 | 5.223 | 5.447 Mbytes
   Step          Temp         v_strain     v_stress_zz        Pxx            Pyy             Lx             Ly           v_Lmat    
         0   292.17918      3.7659142e-16  0.15756653     645.64518     -430.13247      30.91323       30.674104      56.603207    
       100   272.22801      0.0004         0.54173233    -1514.1235     -3278.6612      30.91323       30.674104      56.625848    
       200   246.74215      0.0008         0.69918738    -3336.6592     -5080.7847      30.91323       30.674104      56.648489    
       300   245.84806      0.0012         0.86373919    -4632.6549     -5751.3551      30.91323       30.674104      56.67113     
       400   254.37543      0.0016         0.80053636    -4201.0761     -5717.1762      30.91323       30.674104      56.693772    
       500   249.96163      0.002          0.8404348     -4140.8968     -5615.7121      30.91323       30.674104      56.716413    
       600   245.41908      0.0024         0.95119507    -5101.6813     -6203.8903      30.91323       30.674104      56.739054    
       700   247.72178      0.0028         0.85281575    -4469.9318     -5839.596       30.91323       30.674104      56.761696    
       800   247.11587      0.0032         0.96517106    -4397.5221     -6060.1441      30.91323       30.674104      56.784337    
       900   247.203        0.0036         1.0653225     -5436.9575     -6771.5734      30.91323       30.674104      56.806978    
      1000   248.789        0.004          1.0512884     -5165.0574     -6498.426       30.91323       30.674104      56.829619    
      1100   253.07942      0.0044         1.1747872     -5935.0107     -7322.368       30.91323       30.674104   unfix eq

print '=== Phase 5: Tensile Test ==='
=== Phase 5: Tensile Test ===
reset_timestep 0

# グリップ重心間距離で初期材料長を定義
variable zcm_bot equal xcm(bottom,z)
variable zcm_top equal xcm(top,z)
variable tmp_L equal v_zcm_top-v_zcm_bot
variable L0 equal ${tmp_L}
variable L0 equal 56.6032066411724
print 'Initial grip distance L0 = ${L0} Ang'
Initial grip distance L0 = 56.6032066411724 Ang

# 引っ張り速度 = erate × L0
variable vpull equal 0.002*v_L0
velocity top set 0.0 0.0 ${vpull}
velocity top set 0.0 0.      1600   247.09862      0.0064         1.3971844     -7279.3172     -8519.7176      30.91323       30.674104      56.965467    
      1700   245.40013      0.0068         1.3839217     -7476.7789     -9061.0955      30.91323       30.674104      56.988108    
      1800   249.54195      0.0072         1.481354      -7679.373      -9409.6856      30.91323       30.674104      57.01075     
      1900   252.58132      0.0076         1.4697346     -7830.529      -9005.1681      30.91323       30.674104      57.033391    
      2000   253.27361      0.008          1.4895611     -8007.3004     -9255.4136      30.91323       30.674104      57.056032    
      2100   246.01881      0.0084         1.5913187     -8732.3277     -9614.4606      30.91323       30.674104      57.078674    
      2200   247.6702       0.0088         1.5955928     -8202.1749     -9679.6179      30.91323       30.674104      57.101315    
      2300   244.07084      0.0092         1.6635939     -8369.8659     -9914.7531      30.91323       30.674104      57.123956    
      2400   245.63577      0.0096         1.6704196     -9026.1905     -10935.104      30.91323       30.674104      57.146597    
      2500   254.36944      0.01           1.7669108     -9450.0757     -10800.97       30.91323       30.674104      57.169239    
      2600   249.81119      0.0104         1.8202237     -9794.7385     -11312.507      30.91323       30.674104      57.19188     
      2700   250.30266      0.0108         1.8552964     -10226.377     -12266.452      30.91323       30.674104      57.214521    
      2800   251.43506      0.0112         1.8673332     -9966.3388     -11770.147      30.91323       30.674104      57.237163    
      2900   247.11189      0.0116         1.8510027     -10112.09      -12072.926      30.91323       30.674104      57.259804    
      3000   246.32045      0.012          1.9474947     -10064.278     -12028.839      30.91323       30.674104      57.282445    
      3100   251.30238      0.0124         1.9288552     -10050.326     -11824.114      30.91323       30.674104      57.305086    
      3200   247.16016      0.0128         2.0127259     -11019.678     -12916.464      30.91323       30.674104      57.327728    
      3300   248.93205      0.0132         2.0833904     -11390.155     -12878.747      30.91323       30.674104      57.350369    
      3400   252.89218      0.0136         2.106981      -11013.688     -12772.789      30.91323       30.674104      57.37301     
      3500   244.32627      0.014          2.1350061     -11305.56      -13453.153      30.91323       30.674104      57.395652    
      3600   241.11982      0.0144         2.2903973     -12856.817     -14643.042      30.91323       30.674104      57.418293    
      3700   245.3386       0.0148         2.2761153     -12646.081     -14476.478      30.91323       30.674104      57.440934    
      3800   246.69019      0.0152         2.2604652     -12304.55      -14152.029      30.91323       30.674104      57.463575    
      3900   251.05314      0.0156         2.3468447     -12744.695     -14540.093      30.91323       30.674104      57.486217    
      4000   243.97339      0.016          2.405137      -13126.095     -14894.991      30.91323       30.674104      57.508858    
      4100   249.39532      0.0164         2.4195584     -13012.536     -14652.93       30.91323       30.674104      57.531499    
      4200   246.85797      0.0168         2.4607137     -13009.831     -14592.261      30.91323       30.674104      5.3971844     -7279.3172     -8519.7176      30.91323       30.674104      56.965467    
      1700   245.40013      0.0068         1.3839217     -7476.7789     -9061.0955      30.91323       30.674104      56.988108    
      1800   249.54195      0.0072         1.481354      -7679.373      -9409.6856      30.91323       30.674104      57.01075     
      1900   252.58132      0.0076         1.4697346     -7830.529      -9005.1681      30.91323       30.674104      57.033391    
      2000   253.27361      0.008          1.4895611           4700   250.00457      0.0188         2.6548536     -14378.858     -15913.661      30.91323       30.674104      57.667347    
      4800   253.26975      0.0192         2.6989942     -14567.56      -16061.183      30.91323       30.674104      57.689988    
      4900   243.60561      0.0196         2.7453244     -14736.127     -16961.751      30.91323       30.674104      57.712629    
      5000   246.13529      0.02           2.7712836     -15096.921     -17359.742      30.91323       30.674104      57.735271    
      5100   251.38922      0.0204         2.7828727     -15202.331     -17206.705      30.91323       30.674104      57.757912    
      5200   247.62386      0.0208         2.8813286     -15926.639     -17713.137      30.91323       30.674104      57.780553    
      5300   239.53863      0.0212         2.9474792     -16362.176     -18224.316      30.91323       30.674104      57.803195    
      5400   248.32179      0.0216         2.9439614     -16167.677     -17814.698      30.91323       30.674104      57.825836    
      5500   247.80883      0.022          2.8873951     -15496.669     -17876.07       30.91323       30.674104      57.848477    
      5600   246.17561      0.0224         2.9752563     -16419.834     -18321.736      30.91323       30.674104      57.871118    
      5700   244.68315      0.0228         3.0153305     -16262.619     -17563.376      30.91323       30.674104      57.89376     
      5800   247.45759      0.0232         3.0502595     -16596.192     -18519.63       30.91323       30.674104      57.916401    
      5900   245.88938      0.0236         3.0392316     -16474.909     -18104.886      30.91323       30.674104      57.939042    
      6000   251.89355      0.024          3.1312735     -16745.046     -18477.62       30.91323       30.674104      57.961684    
      6100   245.18552      0.0244         3.2232276     -17452.186     -19034.804      30.91323       30.674104      57.984325    
      6200   251.952        0.0248         3.2085842     -17846.951     -19314.174      30.91323       30.674104      58.006966    
      6300   252.73718      0.0252         3.2199508     -17112.886     -18840.377      30.91323       30.674104      58.029607    
      6400   246.44514      0.0256         3.2669666     -17899.682     -19573.004      30.91323       30.674104      58.052249    
      6500   245.86208      0.026          3.3071027     -18457.749     -20296.369      30.91323       30.674104      58.07489     
      6600   247.86817      0.0264         3.3208647     -18035.737     -19508.063      30.91323       30.674104      58.097531    
      6700   246.88987      0.0268         3.3308387     -18248.51      -19797.357      30.91323       30.674104      58.120173    
      6800   244.55077      0.0272         3.3791714     -18659.431     -20191.121      30.91323       30.674104      58.142814    
      6900   252.16506      0.0276         3.4360114     -18424.695     -20317.189      30.91323       30.674104      58.165455    
      7000   247.85888      0.028          3.4602139     -18928.242     -20713.758      30.91323       30.674104      58.188096    
      7100   251.04125      0.0284         3.5444275     -19482.52      -21520.602      30.91323       30.674104      58.210738    
      7200   250.55045      0.0288         3.5251857     -18940.788     -21233.727      30.91323       30.674104      58.233379    
      7300   248.70346      0.0292         3.5737548     -20095.324     -21510.464      30.91323       30.674104      58.258536     -14378.858     -15913.661      30.91323       30.674104      57.667347    
      4800   253.26975      0.0192         2.6989942     -14567.56      -16061.183      30.91323       30.674104      57.689988    
      4900   243.60561      0.0196         2.7453244     -14736.127     -16961.751      30.91323       30.674104      57.712629    
      5000   246.13529      0.02           2.7712836     -15096.921     -17359.742      30.91323       30.674104      57.735271    
      5100   251.38922      0.0204         2.7828727           7800   249.88735      0.0312         3.7782816     -20612.088     -22642.289      30.91323       30.674104      58.369227    
      7900   250.53963      0.0316         3.7769297     -20736.345     -22431.418      30.91323       30.674104      58.391868    
      8000   244.09496      0.032          3.8044076     -21108.749     -23322.564      30.91323       30.674104      58.414509    
      8100   249.32166      0.0324         3.8048769     -20770.635     -22884.419      30.91323       30.674104      58.437151    
      8200   249.49393      0.0328         3.8241297     -20867.823     -22723.764      30.91323       30.674104      58.459792    
      8300   247.08534      0.0332         3.9639368     -21514.981     -23746.481      30.91323       30.674104      58.482433    
      8400   254.09738      0.0336         3.9169752     -21499.222     -23801.428      30.91323       30.674104      58.505074    
      8500   246.27576      0.034          3.9964141     -21513.633     -23836.107      30.91323       30.674104      58.527716    
      8600   249.57973      0.0344         4.0232262     -22011.719     -24571.049      30.91323       30.674104      58.550357    
      8700   252.28156      0.0348         3.9997122     -22133.639     -23670.58       30.91323       30.674104      58.572998    
      8800   252.11624      0.0352         4.1467446     -22546.956     -24787.359      30.91323       30.674104      58.59564     
      8900   243.3218       0.0356         4.1734842     -22716.132     -24547.777      30.91323       30.674104      58.618281    
      9000   255.77172      0.036          4.1521597     -22693.74      -24667.187      30.91323       30.674104      58.640922    
      9100   249.53222      0.0364         4.1973714     -23264.218     -24781.954      30.91323       30.674104      58.663563    
      9200   248.29876      0.0368         4.2172362     -23373.767     -25115.324      30.91323       30.674104      58.686205    
      9300   250.91053      0.0372         4.212615      -23309.698     -25012.729      30.91323       30.674104      58.708846    
      9400   245.4988       0.0376         4.1824934     -23044.095     -25030.718      30.91323       30.674104      58.731487    
      9500   247.54373      0.038          4.3297052     -23871.689     -25695.704      30.91323       30.674104      58.754128    
      9600   245.07655      0.0384         4.3485082     -23679.375     -25862.646      30.91323       30.674104      58.77677     
      9700   247.53618      0.0388         4.2750571     -23792.679     -25581.114      30.91323       30.674104      58.799411    
      9800   251.7985       0.0392         4.3550316     -23793.213     -25407.891      30.91323       30.674104      58.822052    
      9900   249.07535      0.0396         4.488785      -24327.405     -26823.424      30.91323       30.674104      58.844694    
     10000   251.17174      0.04           4.5218831     -24685.398     -26794.076      30.91323       30.674104      58.867335    
     10100   251.26614      0.0404         4.4889444     -24482.53      -26817.613      30.91323       30.674104      58.889976    
     10200   245.7494       0.0408         4.5370967     -25597.077     -27777.634      30.91323       30.674104      58.912617    
     10300   248.76837      0.0412         4.5397379     -24976.907     -27010.246      30.91323       30.674104      58.935259    
     10400   249.24058      0.0416         4.514657      -25304.868     -27129.092      30.91323       30.674104      58.9579       -20612.088     -22642.289      30.91323       30.674104      58.369227    
      7900   250.53963      0.0316         3.7769297     -20736.345     -22431.418      30.91323       30.674104      58.391868    
      8000   244.09496      0.032          3.8044076     -21108.749     -23322.564      30.91323       30.674104      58.414509    
      8100   249.32166      0.0324         3.8048769     -20770.635     -22884.419      30.91323       30.674104      58.437151    
      8200   249.49393      0.0328         3.8241297          10900   254.56274      0.0436         4.6877281     -26018.701     -28146.139      30.91323       30.674104      59.071106    
     11000   251.3178       0.044          4.6122497     -26405.953     -28288.902      30.91323       30.674104      59.093748    
     11100   249.96138      0.0444         4.6985444     -27086.272     -28271.889      30.91323       30.674104      59.116389    
     11200   247.81957      0.0448         4.7544041     -26791.593     -28723.217      30.91323       30.674104      59.13903     
     11300   253.12143      0.0452         4.6719916     -26372.061     -28429.187      30.91323       30.674104      59.161672    
     11400   246.44032      0.0456         4.7909324     -27020.289     -29070.334      30.91323       30.674104      59.184313    
     11500   249.24036      0.046          4.850351      -27661.955     -29115.194      30.91323       30.674104      59.206954    
     11600   250.18211      0.0464         4.8064259     -26724.277     -28820.436      30.91323       30.674104      59.229595    
     11700   246.51528      0.0468         4.8045864     -27367.296     -28827.463      30.91323       30.674104      59.252237    
     11800   248.08028      0.0472         4.8482294     -27806.246     -29148.881      30.91323       30.674104      59.274878    
     11900   253.6163       0.0476         4.8251355     -27825.844     -29326.148      30.91323       30.674104      59.297519    
     12000   250.81928      0.048          4.712044      -27877.359     -29071.716      30.91323       30.674104      59.320161    
     12100   248.14526      0.0484         4.7755978     -28944.107     -29860.616      30.91323       30.674104      59.342802    
     12200   251.42182      0.0488         4.6986073     -29289.318     -30018.015      30.91323       30.674104      59.365443    
     12300   248.1691       0.0492         4.6297269     -29762.956     -29852.075      30.91323       30.674104      59.388084    
     12400   249.8293       0.0496         4.6405487     -30139.212     -30580.879      30.91323       30.674104      59.410726    
     12500   251.16064      0.05           4.653384      -30145.819     -30329.944      30.91323       30.674104      59.433367    
     12600   249.7864       0.0504         4.6392406     -30271.11      -29872.186      30.91323       30.674104      59.456008    
     12700   246.81291      0.0508         4.6104293     -30529.424     -30195.852      30.91323       30.674104      59.47865     
     12800   247.91764      0.0512         4.6798564     -30989.055     -30939.547      30.91323       30.674104      59.501291    
     12900   256.24632      0.0516         4.6458188     -30955.041     -30516.207      30.91323       30.674104      59.523932    
     13000   246.28903      0.052          4.6038877     -31495.034     -31000.181      30.91323       30.674104      59.546573    
     13100   246.23224      0.0524         4.5905668     -31918.05      -31249.191      30.91323       30.674104      59.569215    
     13200   258.28069      0.0528         4.5643204     -32003.771     -31565.717      30.91323       30.674104      59.591856    
     13300   249.42019      0.0532         4.6131717     -32537.267     -31680.139      30.91323       30.674104      59.614497    
     13400   250.04668      0.0536         4.5336712     -32636.51      -31795.62       30.91323       30.674104      59.637139    
     13500   248.3071       0.054          4.5480673     -32711.009     -31230.25       30.91323       30.674104      59.65978      -26018.701     -28146.139      30.91323       30.674104      59.071106    
     11000   251.3178       0.044          4.6122497     -26405.953     -28288.902      30.91323       30.674104      59.093748    
     11100   249.96138      0.0444         4.6985444     -27086.272     -28271.889      30.91323       30.674104      59.116389    
     11200   247.81957      0.0448         4.7544041     -26791.593     -28723.217      30.91323       30.674104      59.13903     
     11300   253.12143      0.0452         4.6719916          14000   242.60256      0.056          4.6325954     -33513.816     -32580.398      30.91323       30.674104      59.772986    
     14100   252.04187      0.0564         4.672821      -33253.324     -32917.192      30.91323       30.674104      59.795627    
     14200   249.61633      0.0568         4.7284459     -33803.836     -33106.984      30.91323       30.674104      59.818269    
     14300   248.46521      0.0572         4.8140368     -33920.791     -33327.031      30.91323       30.674104      59.84091     
     14400   244.01184      0.0576         4.7813064     -34250.815     -33207.748      30.91323       30.674104      59.863551    
     14500   245.25371      0.058          4.780018      -34266.505     -32863.926      30.91323       30.674104      59.886193    
     14600   249.61314      0.0584         4.8235904     -34356.358     -33251.486      30.91323       30.674104      59.908834    
     14700   241.52114      0.0588         4.8746122     -35023.367     -34202.741      30.91323       30.674104      59.931475    
     14800   247.43326      0.0592         4.8396436     -35370.484     -33867.208      30.91323       30.674104      59.954116    
     14900   257.97429      0.0596         4.8602872     -35307.746     -33947.299      30.91323       30.674104      59.976758    
     15000   245.94461      0.06           4.8829567     -35048.276     -33781.637      30.91323       30.674104      59.999399    
     15100   245.95175      0.0604         4.9033108     -35528.035     -34198.381      30.91323       30.674104      60.02204     
     15200   244.77684      0.0608         4.8175486     -34558.315     -33519.715      30.91323       30.674104      60.044682    
     15300   245.44411      0.0612         4.8474921     -35323.512     -33849.028      30.91323       30.674104      60.067323    
     15400   239.44748      0.0616         4.9312753     -36032.343     -34491.418      30.91323       30.674104      60.089964    
     15500   252.94668      0.062          4.9604458     -35953.791     -34644.73       30.91323       30.674104      60.112605    
     15600   250.34184      0.0624         4.9161428     -35571.811     -34373.038      30.91323       30.674104      60.135247    
     15700   248.02535      0.0628         4.9894372     -36104.846     -35203.831      30.91323       30.674104      60.157888    
     15800   250.31989      0.0632         5.0144251     -36887.223     -35369.792      30.91323       30.674104      60.180529    
     15900   247.59686      0.0636         4.9069031     -36156.639     -34682.838      30.91323       30.674104      60.203171    
     16000   249.6864       0.064          5.0415001     -36765.686     -35270.766      30.91323       30.674104      60.225812    
     16100   247.56376      0.0644         5.0618394     -36588.123     -35054.417      30.91323       30.674104      60.248453    
     16200   249.93397      0.0648         4.9362323     -36405.379     -35108.148      30.91323       30.674104      60.271094    
     16300   252.31929      0.0652         4.98018       -36691.104     -35436.967      30.91323       30.674104      60.293736    
     16400   243.37352      0.0656         5.0220665     -36401.453     -35045.828      30.91323       30.674104      60.316377    
     16500   246.75777      0.066          4.9992871     -36527.374     -34969.87       30.91323       30.674104      60.339018    
     16600   246.58487      0.0664         5.0182417     -37045.5       -35181.274      30.91323       30.674104      60.36166     
   513.816     -32580.398      30.91323       30.674104      59.772986    
     14100   252.04187      0.0564         4.672821      -33253.324     -32917.192      30.91323       30.674104      59.795627    
     14200   249.61633      0.0568         4.7284459     -33803.836     -33106.984      30.91323       30.674104      59.818269    
     14300   248.46521      0.0572         4.8140368     -33920.791     -33327.031      30.91323       30.674104      59.84091     
     14400   244.01184      0.0576         4.7813064          17100   245.81244      0.0684         5.2303841     -37929.397     -36314.224      30.91323       30.674104      60.474866    
     17200   247.70287      0.0688         5.1972224     -38359.05      -36451.311      30.91323       30.674104      60.497507    
     17300   251.31978      0.0692         5.1250912     -38088.063     -35687.393      30.91323       30.674104      60.520149    
     17400   251.23921      0.0696         5.2796212     -38425.177     -37209.005      30.91323       30.674104      60.54279     
     17500   249.64435      0.07           5.2863658     -38949.554     -37391.83       30.91323       30.674104      60.565431    
     17600   246.66831      0.0704         5.2487023     -38460.463     -36924.907      30.91323       30.674104      60.588072    
     17700   250.24084      0.0708         5.2482237     -38951.154     -37076.018      30.91323       30.674104      60.610714    
     17800   243.94979      0.0712         5.1626452     -38297.674     -36308.489      30.91323       30.674104      60.633355    
     17900   246.591        0.0716         5.1003232     -38537.531     -36119.549      30.91323       30.674104      60.655996    
     18000   247.09857      0.072          5.0164552     -38389.009     -35691.486      30.91323       30.674104      60.678638    
     18100   248.60093      0.0724         5.1601895     -39271.591     -37002.913      30.91323       30.674104      60.701279    
     18200   245.41981      0.0728         5.1547491     -38558.252     -35873.275      30.91323       30.674104      60.72392     
     18300   248.96925      0.0732         5.0402833     -38362.867     -35789.054      30.91323       30.674104      60.746561    
     18400   251.94387      0.0736         5.0524586     -38704.481     -35974.233      30.91323       30.674104      60.769203    
     18500   244.6832       0.074          5.0921656     -38668.878     -36121.683      30.91323       30.674104      60.791844    
     18600   248.6866       0.0744         5.0404121     -37797.746     -36134.032      30.91323       30.674104      60.814485    
     18700   244.96989      0.0748         5.0672804     -38704.724     -35649.081      30.91323       30.674104      60.837126    
     18800   245.36945      0.0752         4.9160122     -38525.071     -35182.509      30.91323       30.674104      60.859768    
     18900   253.42982      0.0756         4.9489656     -38280.328     -35513.412      30.91323       30.674104      60.882409    
     19000   244.80716      0.076          4.8468548     -38204.42      -34812.075      30.91323       30.674104      60.90505     
     19100   254.07617      0.0764         4.8031542     -37842.175     -34743.963      30.91323       30.674104      60.927692    
     19200   255.21219      0.0768         4.6689142     -36699.906     -33781.443      30.91323       30.674104      60.950333    
     19300   248.61174      0.0772         4.4491529     -35997.454     -32123.442      30.91323       30.674104      60.972974    
     19400   248.38144      0.0776         4.2052049     -34738.71      -31140.167      30.91323       30.674104      60.995615    
     19500   247.36373      0.078          4.0654825     -34099.502     -30369.216      30.91323       30.674104      61.018257    
     19600   253.04314      0.0784         3.7834345     -31979.043     -27758.399      30.91323       30.674104      61.040898    
     19700   247.03439      0.0788         3.4069121     -29586.386     -25259.136      30.91323       30.674104      61.063539    
     19397     -36314.224      30.91323       30.674104      60.474866    
     17200   247.70287      0.0688         5.1972224     -38359.05      -36451.311      30.91323       30.674104      60.497507    
     17300   251.31978      0.0692         5.1250912     -38088.063     -35687.393      30.91323       30.674104      60.520149    
     17400   251.23921      0.0696         5.2796212     -38425.177     -37209.005      30.91323       30.674104      60.54279     
     17500   249.64435      0.07           5.2863658          20200   249.43663      0.0808         1.546346      -16183.591     -12903.373      30.91323       30.674104      61.176746    
     20300   245.69452      0.0812         1.2854211     -14238.378     -11520.102      30.91323       30.674104      61.199387    
     20400   251.61639      0.0816         1.1115936     -12387.983     -9467.27        30.91323       30.674104      61.222028    
     20500   251.65105      0.082          1.0660781     -11442.714     -8694.1881      30.91323       30.674104      61.24467     
     20600   251.23213      0.0824         0.90913068    -10027.711     -8078.3185      30.91323       30.674104      61.267311    
     20700   243.41214      0.0828         0.86904213    -9998.46       -7853.1733      30.91323       30.674104      61.289952    
     20800   249.15853      0.0832         0.97768637    -10053.5       -8303.1465      30.91323       30.674104      61.312593    
     20900   254.75605      0.0836         1.0033413     -10376.67      -8611.8546      30.91323       30.674104      61.335235    
     21000   249.71591      0.084          1.2574069     -11520.745     -10026.058      30.91323       30.674104      61.357876    
     21100   246.66124      0.0844         1.4446403     -12458.085     -10738.138      30.91323       30.674104      61.380517    
     21200   248.72361      0.0848         1.4088737     -12157.271     -11059.529      30.91323       30.674104      61.403159    
     21300   251.87762      0.0852         1.381982      -11987.361     -10971.814      30.91323       30.674104      61.4258      
     21400   249.65803      0.0856         1.3917843     -11749.042     -11139.013      30.91323       30.674104      61.448441    
     21500   250.34935      0.086          1.3286194     -11324.678     -10503.316      30.91323       30.674104      61.471082    
     21600   245.74424      0.0864         1.2313408     -10574.928     -9852.1812      30.91323       30.674104      61.493724    
     21700   250.35308      0.0868         1.1720692     -9718.6592     -9357.0078      30.91323       30.674104      61.516365    
     21800   256.36246      0.0872         0.99175295    -8320.8439     -7864.9729      30.91323       30.674104      61.539006    
     21900   249.643        0.0876         0.85874162    -7780.6696     -7524.0811      30.91323       30.674104      61.561648    
     22000   250.406        0.088          0.74158089    -6892.5124     -6439.8224      30.91323       30.674104      61.584289    
     22100   243.99944      0.0884         0.71961641    -6277.8849     -5944.1206      30.91323       30.674104      61.60693     
     22200   249.48154      0.0888         0.70366094    -6598.6454     -5990.284       30.91323       30.674104      61.629571    
     22300   245.65414      0.0892         0.7734864     -6444.3261     -6029.6993      30.91323       30.674104      61.652213    
     22400   242.02291      0.0896         1.0235429     -8165.7083     -7935.2235      30.91323       30.674104      61.674854    
     22500   251.24808      0.09           1.0090224     -8008.0084     -7751.0571      30.91323       30.674104      61.697495    
     22600   242.55216      0.0904         1.0909276     -9574.1682     -8444.7675      30.91323       30.674104      61.720137    
     22700   247.76852      0.0908         1.1522694     -8866.1016     -8659.1069      30.91323       30.674104      61.742778    
     22800   248.08771      0.0912         1.1356181     -9913.8963     -8857.157       30.91323       30.674104      61.765419    
     22900     -12903.373      30.91323       30.674104      61.176746    
     20300   245.69452      0.0812         1.2854211     -14238.378     -11520.102      30.91323       30.674104      61.199387    
     20400   251.61639      0.0816         1.1115936     -12387.983     -9467.27        30.91323       30.674104      61.222028    
     20500   251.65105      0.082          1.0660781     -11442.714     -8694.1881      30.91323       30.674104      61.24467     
     20600   251.23213      0.0824         0.90913068         23300   250.66084      0.0932         1.0209074     -7654.6357     -7762.4985      30.91323       30.674104      61.878626    
     23400   251.45698      0.0936         0.86358074    -6087.1931     -6344.0945      30.91323       30.674104      61.901267    
     23500   243.93089      0.094          0.76915458    -5972.5698     -6246.318       30.91323       30.674104      61.923908    
     23600   246.7489       0.0944         0.73276612    -5252.2814     -5593.4755      30.91323       30.674104      61.946549    
     23700   251.82578      0.0948         0.80949804    -6480.8607     -6338.6262      30.91323       30.674104      61.969191    
     23800   247.42421      0.0952         0.88951044    -6141.7435     -6339.2112      30.91323       30.674104      61.991832    
     23900   248.80517      0.0956         0.99344256    -6787.1154     -6968.1638      30.91323       30.674104      62.014473    
     24000   255.17338      0.096          0.99406542    -6891.5619     -6851.821       30.91323       30.674104      62.037114    
     24100   247.06063      0.0964         1.0907887     -7388.7263     -8171.5092      30.91323       30.674104      62.059756    
     24200   245.82674      0.0968         1.2511058     -8946.0516     -8863.6987      30.91323       30.674104      62.082397    
     24300   255.06576      0.0972         1.3668563     -9703.7564     -9179.9389      30.91323       30.674104      62.105038    
     24400   247.35913      0.0976         1.5451087     -10508.286     -10795.266      30.91323       30.674104      62.12768     
     24500   249.23537      0.098          1.4969952     -9389.2217     -10311.178      30.91323       30.674104      62.150321    
     24600   249.72746      0.0984         1.4546642     -9293.8938     -9610.0952      30.91323       30.674104      62.172962    
     24700   247.16689      0.0988         1.3342289     -8653.0143     -9308.6061      30.91323       30.674104      62.195603    
     24800   245.22052      0.0992         1.1959068     -8053.539      -8625.3666      30.91323       30.674104      62.218245    
     24900   251.39625      0.0996         1.1400883     -7350.1924     -7926.1426      30.91323       30.674104      62.240886    
     25000   250.53093      0.1            1.1376293     -7277.9808     -8086.8706      30.91323       30.674104      62.263527    
     25100   242.78241      0.1004         1.074613      -6130.0992     -7174.313       30.91323       30.674104      62.286169    
     25200   248.71057      0.1008         1.0233986     -6719.7781     -6972.0174      30.91323       30.674104      62.30881     
     25300   248.86099      0.1012         1.0069257     -6940.8956     -6723.5496      30.91323       30.674104      62.331451    
     25400   244.02591      0.1016         1.0682293     -7086.032      -7056.0135      30.91323       30.674104      62.354092    
     25500   248.00692      0.102          1.1718842     -7410.4576     -7478.5115      30.91323       30.674104      62.376734    
     25600   246.56371      0.1024         1.3234364     -8870.7986     -9189.8368      30.91323       30.674104      62.399375    
     25700   242.07329      0.1028         1.4796105     -9991.2552     -10225.568      30.91323       30.674104      62.422016    
     25800   251.5906       0.1032         1.4728093     -10018.528     -10169.115      30.91323       30.674104      62.444658    
     25900   247.82993      0.1036         1.581721      -10333.802     -10787.925      30.91323       30.674104      62.467299    
     26000   25-7762.4985      30.91323       30.674104      61.878626    
     23400   251.45698      0.0936         0.86358074    -6087.1931     -6344.0945      30.91323       30.674104      61.901267    
     23500   243.93089      0.094          0.76915458    -5972.5698     -6246.318       30.91323       30.674104      61.923908    
     23600   246.7489       0.0944         0.73276612    -5252.2814     -5593.4755      30.91323       30.674104      61.946549    
     23700   251.82578      0.0948         0.80949804         26400   246.89923      0.1056         1.3397466     -8030.0118     -9216.7945      30.91323       30.674104      62.580505    
     26500   249.70301      0.106          1.288195      -7953.9301     -8645.8184      30.91323       30.674104      62.603147    
     26600   239.30279      0.1064         1.2478703     -7720.659      -8507.492       30.91323       30.674104      62.625788    
     26700   246.82152      0.1068         1.2622667     -7812.1839     -8296.9648      30.91323       30.674104      62.648429    
     26800   244.24498      0.1072         1.2759862     -8534.238      -8390.9533      30.91323       30.674104      62.67107     
     26900   246.61628      0.1076         1.2890461     -8307.2783     -8697.2398      30.91323       30.674104      62.693712    
     27000   255.14238      0.108          1.365483      -9134.5414     -8929.8621      30.91323       30.674104      62.716353    
     27100   247.96019      0.1084         1.4145524     -9056.2809     -9234.6388      30.91323       30.674104      62.738994    
     27200   244.5721       0.1088         1.5104029     -10461.689     -10178.137      30.91323       30.674104      62.761636    
     27300   247.12406      0.1092         1.4982317     -9773.6589     -9978.4114      30.91323       30.674104      62.784277    
     27400   249.23931      0.1096         1.5734475     -10267.986     -10662.464      30.91323       30.674104      62.806918    
     27500   242.78268      0.11           1.5590063     -10249.603     -10372.876      30.91323       30.674104      62.829559    
     27600   252.33479      0.1104         1.5892421     -10459.345     -11055.09       30.91323       30.674104      62.852201    
     27700   253.17238      0.1108         1.5209033     -10250.771     -10650.047      30.91323       30.674104      62.874842    
     27800   246.49716      0.1112         1.4650713     -9360.4556     -10366.081      30.91323       30.674104      62.897483    
     27900   246.70687      0.1116         1.4216091     -8945.9217     -9818.0666      30.91323       30.674104      62.920125    
     28000   237.24324      0.112          1.2932177     -9174.6384     -9027.4432      30.91323       30.674104      62.942766    
     28100   246.1945       0.1124         1.2266084     -8549.7841     -8612.4024      30.91323       30.674104      62.965407    
     28200   253.36002      0.1128         1.1536701     -8828.6395     -8139.7918      30.91323       30.674104      62.988048    
     28300   247.12096      0.1132         1.1409693     -9114.0897     -9073.7585      30.91323       30.674104      63.01069     
     28400   250.819        0.1136         1.0966629     -8833.967      -8660.7422      30.91323       30.674104      63.033331    
     28500   246.96968      0.114          1.0899213     -9811.8541     -9488.5868      30.91323       30.674104      63.055972    
     28600   242.76649      0.1144         1.0946164     -9775.7121     -9127.7483      30.91323       30.674104      63.078613    
     28700   250.39296      0.1148         1.1122555     -10452.969     -9050.8191      30.91323       30.674104      63.101255    
     28800   248.05982      0.1152         0.99158063    -10192.299     -8819.968       30.91323       30.674104      63.123896    
     28900   244.08293      0.1156         1.1096423     -10741.336     -9098.8779      30.91323       30.674104      63.146537    
     29000   251.08368      0.116          1.1459781     -10765.38      -9476.8492      30.91323       30.674104      63.169179    
     29100   254.246.7945      30.91323       30.674104      62.580505    
     26500   249.70301      0.106          1.288195      -7953.9301     -8645.8184      30.91323       30.674104      62.603147    
     26600   239.30279      0.1064         1.2478703     -7720.659      -8507.492       30.91323       30.674104      62.625788    
     26700   246.82152      0.1068         1.2622667     -7812.1839     -8296.9648      30.91323       30.674104      62.648429    
     26800   244.24498      0.1072         1.2759862          29500   246.2397       0.118          1.0964959     -9049.2876     -9427.8063      30.91323       30.674104      63.282385    
     29600   251.69324      0.1184         1.0529876     -8423.6717     -8649.8839      30.91323       30.674104      63.305026    
     29700   243.66229      0.1188         0.92350692    -8130.6735     -7306.6203      30.91323       30.674104      63.327668    
     29800   249.62583      0.1192         1.0568667     -8855.4094     -8667.7466      30.91323       30.674104      63.350309    
     29900   246.67446      0.1196         1.0880276     -9157.2662     -8891.725       30.91323       30.674104      63.37295     
     30000   252.67511      0.12           1.0102072     -8898.1943     -8866.1932      30.91323       30.674104      63.395591    
     30100   245.11459      0.1204         1.1069498     -9570.4251     -8828.8811      30.91323       30.674104      63.418233    
     30200   241.63666      0.1208         1.0921057     -9370.6059     -9025.6472      30.91323       30.674104      63.440874    
     30300   242.70695      0.1212         1.0554283     -9509.5993     -8943.2866      30.91323       30.674104      63.463515    
     30400   250.74306      0.1216         1.1724976     -9192.1672     -9453.6737      30.91323       30.674104      63.486157    
     30500   244.61405      0.122          1.1901184     -9634.9411     -9671.4988      30.91323       30.674104      63.508798    
     30600   249.65601      0.1224         1.2656489     -10422.165     -9967.7774      30.91323       30.674104      63.531439    
     30700   251.69773      0.1228         1.256603      -9990.3805     -10055.476      30.91323       30.674104      63.55408     
     30800   245.26774      0.1232         1.1703923     -9999.6821     -9886.8954      30.91323       30.674104      63.576722    
     30900   251.1674       0.1236         1.0485302     -9004.2957     -9173.0926      30.91323       30.674104      63.599363    
     31000   248.4955       0.124          1.0699195     -8349.5624     -8259.1727      30.91323       30.674104      63.622004    
     31100   244.87619      0.1244         1.0265693     -8719.6955     -8488.0448      30.91323       30.674104      63.644646    
     31200   247.02537      0.1248         0.89330618    -7701.4588     -7862.8271      30.91323       30.674104      63.667287    
     31300   251.12866      0.1252         0.90005122    -8105.2176     -8126.7471      30.91323       30.674104      63.689928    
     31400   245.36463      0.1256         0.88910367    -7704.9054     -7425.9167      30.91323       30.674104      63.712569    
     31500   252.90694      0.126          0.9250894     -8334.5691     -8086.7363      30.91323       30.674104      63.735211    
     31600   254.33652      0.1264         0.91405036    -7454.4162     -7821.689       30.91323       30.674104      63.757852    
     31700   245.79876      0.1268         0.9975475     -8435.9836     -8583.3932      30.91323       30.674104      63.780493    
     31800   249.32837      0.1272         0.99320354    -8878.5055     -8196.0926      30.91323       30.674104      63.803135    
     31900   252.39299      0.1276         1.0133867     -8872.7721     -8797.6314      30.91323       30.674104      63.825776    
     32000   246.08924      0.128          1.1349546     -9370.1127     -9297.0548      30.91323       30.674104      63.848417    
     32100   251.0103       0.1284         1.1143682     -9156.7736     -9500.2055      30.91323       30.674104      63.871058    
     32200   252.28383 63      30.91323       30.674104      63.282385    
     29600   251.69324      0.1184         1.0529876     -8423.6717     -8649.8839      30.91323       30.674104      63.305026    
     29700   243.66229      0.1188         0.92350692    -8130.6735     -7306.6203      30.91323       30.674104      63.327668    
     29800   249.62583      0.1192         1.0568667     -8855.4094     -8667.7466      30.91323       30.674104      63.350309    
     29900   246.67446      0.1196         1.0880276          32600   247.76848      0.1304         1.1756249     -9195.5099     -9556.3374      30.91323       30.674104      63.984265    
     32700   256.26088      0.1308         0.98927859    -8575.0469     -8566.9281      30.91323       30.674104      64.006906    
     32800   248.91004      0.1312         1.0234356     -9234.3174     -9090.4561      30.91323       30.674104      64.029547    
     32900   242.82476      0.1316         0.9997995     -8910.0107     -8698.0942      30.91323       30.674104      64.052189    
     33000   250.42002      0.132          1.0810439     -9495.4343     -9573.9539      30.91323       30.674104      64.07483     
     33100   254.12411      0.1324         1.053287      -8892.6921     -8631.1614      30.91323       30.674104      64.097471    
     33200   250.00184      0.1328         1.0670639     -9024.7468     -9176.3008      30.91323       30.674104      64.120112    
     33300   248.65659      0.1332         1.0923996     -8711.4076     -9091.9512      30.91323       30.674104      64.142754    
     33400   252.37548      0.1336         1.0036121     -8703.5836     -9061.2197      30.91323       30.674104      64.165395    
     33500   252.17648      0.134          1.174519      -9366.02       -9647.1865      30.91323       30.674104      64.188036    
     33600   245.6476       0.1344         1.2470214     -10121.409     -10339.829      30.91323       30.674104      64.210678    
     33700   249.12319      0.1348         1.2212029     -9770.5437     -10158.45       30.91323       30.674104      64.233319    
     33800   254.03094      0.1352         1.177864      -9000.1318     -9241.5597      30.91323       30.674104      64.25596     
     33900   250.73002      0.1356         1.138754      -9495.1475     -9518.9109      30.91323       30.674104      64.278601    
     34000   242.7018       0.136          1.0519885     -9005.6174     -8931.9981      30.91323       30.674104      64.301243    
     34100   249.53546      0.1364         1.0034138     -8636.8775     -8074.3026      30.91323       30.674104      64.323884    
     34200   253.01001      0.1368         0.99505281    -9198.1321     -8683.4853      30.91323       30.674104      64.346525    
     34300   248.27514      0.1372         1.0259012     -8644.8863     -8332.7578      30.91323       30.674104      64.369167    
     34400   248.84658      0.1376         0.99636167    -7600.7963     -7871.5354      30.91323       30.674104      64.391808    
     34500   255.43234      0.138          0.86665666    -7073.8339     -7184.6797      30.91323       30.674104      64.414449    
     34600   247.39176      0.1384         0.85561844    -7098.8742     -6961.1639      30.91323       30.674104      64.43709     
     34700   248.32968      0.1388         0.73734357    -5404.5203     -5965.3908      30.91323       30.674104      64.459732    
     34800   246.52479      0.1392         0.83305765    -6115.4489     -6544.8877      30.91323       30.674104      64.482373    
     34900   248.36521      0.1396         0.84772797    -5550.4049     -6450.2501      30.91323       30.674104      64.505014    
     35000   248.62294      0.14           0.85436449    -5507.1998     -6797.3031      30.91323       30.674104      64.527656    
     35100   245.09901      0.1404         1.0068231     -6036.2151     -7054.2312      30.91323       30.674104      64.550297    
     35200   252.5085       0.1408         0.90160461    -6216.7901     -7448.032       30.91323       30.674104      64.572938    
     35300   249.11904         30.91323       30.674104      63.984265    
     32700   256.26088      0.1308         0.98927859    -8575.0469     -8566.9281      30.91323       30.674104      64.006906    
     32800   248.91004      0.1312         1.0234356     -9234.3174     -9090.4561      30.91323       30.674104      64.029547    
     32900   242.82476      0.1316         0.9997995     -8910.0107     -8698.0942      30.91323       30.674104      64.052189    
     33000   250.42002      0.132          1.0810439          35700   254.37428      0.1428         1.1268019     -6827.8992     -7553.8224      30.91323       30.674104      64.686145    
     35800   251.01425      0.1432         1.1687735     -7137.3693     -8384.0733      30.91323       30.674104      64.708786    
     35900   249.43463      0.1436         1.0481601     -6761.6773     -8160.7593      30.91323       30.674104      64.731427    
     36000   248.57023      0.144          0.98711985    -5934.5715     -7285.8778      30.91323       30.674104      64.754068    
     36100   247.0928       0.1444         0.98233778    -6862.9083     -7313.2945      30.91323       30.674104      64.77671     
     36200   241.56869      0.1448         0.95735923    -5894.916      -6842.7991      30.91323       30.674104      64.799351    
     36300   253.98649      0.1452         1.1296065     -6998.262      -7889.2746      30.91323       30.674104      64.821992    
     36400   247.1139       0.1456         1.1086864     -6413.339      -7199.2789      30.91323       30.674104      64.844634    
     36500   246.28529      0.146          1.0612317     -6252.6767     -7665.1342      30.91323       30.674104      64.867275    
     36600   242.00837      0.1464         1.0203417     -6445.5037     -7564.6214      30.91323       30.674104      64.889916    
[...]
     38000   245.67911      0.152          0.86864457    -6157.7005     -6847.1693      30.91323       30.674104      65.206894    
     38100   246.56528      0.1524         0.82270256    -6223.7304     -6455.7607      30.91323       30.674104      65.229535    
     38200   242.80388      0.1528         0.87570465    -6596.5269     -6870.012       30.91323       30.674104      65.252177    
     38300   253.4685       0.1532         0.87278236    -6796.1597     -6865.8935      30.91323       30.674104      65.274818    
     38400   245.78513      0.130.91323       30.674104      64.686145    
     35800   251.01425      0.1432         1.1687735     -7137.3693     -8384.0733      30.91323       30.674104      64.708786    
     35900   249.43463      0.1436         1.0481601     -6761.6773     -8160.7593      30.91323       30.674104      64.731427    
     36000   248.57023      0.144          0.98711985    -5934.5715     -7285.8778      30.91323       30.674104      64.754068    
     36100   247.0928       0.1444         0.98233778         38800   249.184        0.1552         1.0842801     -7950.5438     -8404.0575      30.91323       30.674104      65.388024    
     38900   247.40465      0.1556         1.0928713     -8396.201      -8811.8725      30.91323       30.674104      65.410666    
     39000   250.05041      0.156          1.0587969     -8176.0823     -8583.7517      30.91323       30.674104      65.433307    
     39100   246.85591      0.1564         1.1107983     -7801.6892     -8279.4425      30.91323       30.674104      65.455948    
     39200   245.56999      0.1568         1.0736328     -7859.7348     -8383.1891      30.91323       30.674104      65.478589    
     39300   248.39017      0.1572         0.98147855    -6863.6272     -7302.1586      30.91323       30.674104      65.501231    
     39400   249.90566      0.1576         0.94801949    -6979.1886     -7499.1362      30.91323       30.674104      65.523872    
     39500   244.11258      0.158          0.90707892    -6906.9325     -6828.4674      30.91323       30.674104      65.546513    
     39600   246.59529      0.1584         0.81958692    -6096.8006     -6184.9343      30.91323       30.674104      65.569155    
     39700   250.48857      0.1588         0.82628471    -6364.981      -6715.8585      30.91323       30.674104      65.591796    
     39800   247.1401       0.1592         0.7075915     -6190.6823     -6140.236       30.91323       30.674104      65.614437    
     39900   249.26464      0.1596         0.63104823    -5750.1849     -5579.7335      30.91323       30.674104      65.637078    
     40000   248.08413      0.16           0.65749504    -5500.857      -6013.6155      30.91323       30.674104      65.65972     
     40100   244.82209      0.1604         0.60897334    -5627.5557     -5888.1858      30.91323       30.674104      65.682361    
     40200   250.6817       0.1608         0.49898033    -4829.6815     -4670.7229      30.91323       30.674104      65.705002    
     40300   247.08492      0.1612         0.52601586    -4896.8712     -4659.2949      30.91323       30.674104      65.727644    
     40400   246.2601       0.1616         0.5906225     -4222.4678     -5030.5007      30.91323       30.674104      65.750285    
     40500   250.25002      0.162          0.55892255    -4612.9233     -5065.2874      30.91323       30.674104      65.772926    
     40600   253.3234       0.1624         0.54438705    -4786.0924     -5065.07        30.91323       30.674104      65.795567    
     40700   248.69664      0.1628         0.63246617    -4813.117      -5926.4444      30.91323       30.674104      65.818209    
     40800   252.37386      0.1632         0.58940527    -4430.5755     -5761.896       30.91323       30.674104      65.84085     
     40900   244.8599       0.1636         0.51922795    -3974.8191     -4985.6191      30.91323       30.674104      65.863491    
     41000   252.84375      0.164          0.65768677    -4860.0976     -5512.9519      30.91323       30.674104      65.886133    
     41100   251.17305      0.1644         0.54675484    -4866.1907     -5310.712       30.91323       30.674104      65.908774    
     41200   246.40632      0.1648         0.62231807    -5205.077      -5442.3503      30.91323       30.674104      65.931415    
     41300   249.3762       0.1652         0.5531809     -4519.6424     -5099.8753      30.91323       30.674104      65.954056    
     41400   252.09931      0.1656         0.52028503    -4600.5112     -5342.718       30.91323       30.674104      65.976698    
     41500   250.01307      0.166  1323       30.674104      65.388024    
     38900   247.40465      0.1556         1.0928713     -8396.201      -8811.8725      30.91323       30.674104      65.410666    
     39000   250.05041      0.156          1.0587969     -8176.0823     -8583.7517      30.91323       30.674104      65.433307    
     39100   246.85591      0.1564         1.1107983     -7801.6892     -8279.4425      30.91323       30.674104      65.455948    
     39200   245.56999      0.1568         1.0736328          41900   244.03993      0.1676         0.61069838    -4098.3141     -5328.226       30.91323       30.674104      66.089904    
     42000   249.69288      0.168          0.57582138    -4702.4338     -5057.0788      30.91323       30.674104      66.112545    
     42100   248.50161      0.1684         0.6376996     -5290.973      -5739.5957      30.91323       30.674104      66.135187    
     42200   243.97312      0.1688         0.56961346    -4870.0409     -5456.2737      30.91323       30.674104      66.157828    
     42300   251.40166      0.1692         0.58335989    -4848.7062     -5097.9371      30.91323       30.674104      66.180469    
     42400   246.73169      0.1696         0.48420751    -4632.9707     -4557.8385      30.91323       30.674104      66.20311     
     42500   248.35057      0.17           0.55348875    -4460.3349     -4592.9793      30.91323       30.674104      66.225752    
     42600   254.42157      0.1704         0.46614723    -4138.4742     -3411.5136      30.91323       30.674104      66.248393    
     42700   245.53071      0.1708         0.49645341    -3893.191      -3995.5799      30.91323       30.674104      66.271034    
     42800   244.98478      0.1712         0.445861      -3671.6632     -3969.4897      30.91323       30.674104      66.293676    
     42900   246.69428      0.1716         0.36440119    -3080.9214     -2950.7453      30.91323       30.674104      66.316317    
     43000   242.03491      0.172          0.456904      -4094.497      -4052.2667      30.91323       30.674104      66.338958    
     43100   246.45186      0.1724         0.39123367    -3517.6736     -3765.2977      30.91323       30.674104      66.361599    
     43200   249.21671      0.1728         0.44744784    -3967.8046     -4168.4687      30.91323       30.674104      66.384241    
     43300   248.67625      0.1732         0.50172509    -3504.0825     -4277.5912      30.91323       30.674104      66.406882    
     43400   245.61923      0.1736         0.54479986    -4021.0953     -5595.093       30.91323       30.674104      66.429523    
     43500   245.4703       0.174          0.5954348     -3921.023      -4674.6742      30.91323       30.674104      66.452165    
     43600   245.34801      0.1744         0.6056894     -5079.3459     -5842.161       30.91323       30.674104      66.474806    
     43700   244.49386      0.1748         0.64509037    -4350.5622     -5177.2096      30.91323       30.674104      66.497447    
     43800   251.92339      0.1752         0.58479235    -4269.642      -5140.8659      30.91323       30.674104      66.520088    
     43900   245.85306      0.1756         0.61868682    -4316.0816     -5145.7071      30.91323       30.674104      66.54273     
     44000   243.34469      0.176          0.72162301    -5588.4495     -5966.0951      30.91323       30.674104      66.565371    
     44100   248.80886      0.1764         0.67864459    -5113.3753     -5563.4592      30.91323       30.674104      66.588012    
     44200   245.46853      0.1768         0.65103396    -4908.5679     -4852.7136      30.91323       30.674104      66.610654    
     44300   251.85052      0.1772         0.62503021    -4880.3843     -5446.4842      30.91323       30.674104      66.633295    
     44400   245.49379      0.1776         0.56621827    -4232.3104     -4873.23        30.91323       30.674104      66.655936    
     44500   250.38537      0.178          0.52684194    -4019.2309     -4374.925       30.91323       30.674104      66.678577    
     44600   249.56958      0.1784            30.674104      66.089904    
     42000   249.69288      0.168          0.57582138    -4702.4338     -5057.0788      30.91323       30.674104      66.112545    
     42100   248.50161      0.1684         0.6376996     -5290.973      -5739.5957      30.91323       30.674104      66.135187    
     42200   243.97312      0.1688         0.56961346    -4870.0409     -5456.2737      30.91323       30.674104      66.157828    
     42300   251.40166      0.1692         0.58335989         45000   246.91577      0.18           0.58711592    -4284.6712     -5059.3895      30.91323       30.674104      66.791784    
     45100   249.17747      0.1804         0.60656085    -4033.9082     -5105.0713      30.91323       30.674104      66.814425    
     45200   243.36338      0.1808         0.68126609    -5265.0518     -5550.7372      30.91323       30.674104      66.837066    
     45300   247.83386      0.1812         0.69158866    -5453.3351     -5699.0261      30.91323       30.674104      66.859708    
     45400   252.73581      0.1816         0.74859848    -5117.8655     -5776.6164      30.91323       30.674104      66.882349    
     45500   242.92458      0.182          0.73020412    -4985.7239     -5818.6558      30.91323       30.674104      66.90499     
     45600   253.29005      0.1824         0.76479382    -4757.8824     -5292.402       30.91323       30.674104      66.927632    
     45700   248.15412      0.1828         0.83565349    -5845.0378     -6047.3911      30.91323       30.674104      66.950273    
     45800   247.3362       0.1832         0.68050598    -4894.7477     -4978.2032      30.91323       30.674104      66.972914    
     45900   248.32974      0.1836         0.67480902    -5414.6182     -5691.6841      30.91323       30.674104      66.995555    
     46000   248.74749      0.184          0.66346601    -4238.1898     -4969.4992      30.91323       30.674104      67.018197    
     46100   252.87829      0.1844         0.65594469    -4977.4995     -5489.5726      30.91323       30.674104      67.040838    
     46200   244.3153       0.1848         0.7047236     -5070.6518     -5664.8061      30.91323       30.674104      67.063479    
     46300   245.54606      0.1852         0.6884078     -4482.2085     -5267.6891      30.91323       30.674104      67.086121    
     46400   253.29703      0.1856         0.68791109    -4309.2161     -4943.6437      30.91323       30.674104      67.108762    
     46500   244.3458       0.186          0.70711335    -4652.1912     -5317.186       30.91323       30.674104      67.131403    
     46600   243.62754      0.1864         0.67666265    -4670.2478     -5578.9554      30.91323       30.674104      67.154044    
     46700   249.41337      0.1868         0.64816554    -4692.9338     -5566.214       30.91323       30.674104      67.176686    
     46800   239.97294      0.1872         0.78120207    -5474.9611     -5861.3631      30.91323       30.674104      67.199327    
     46900   247.57085      0.1876         0.78949089    -6220.2709     -5653.6382      30.91323       30.674104      67.221968    
     47000   249.28739      0.188          0.74417002    -5525.7313     -5817.0883      30.91323       30.674104      67.244609    
     47100   245.98072      0.1884         0.84530364    -5638.9471     -6255.2001      30.91323       30.674104      67.267251    
     47200   242.97752      0.1888         0.80892979    -5037.1114     -5962.2978      30.91323       30.674104      67.289892    
     47300   251.89259      0.1892         0.74814799    -5314.2552     -5803.0336      30.91323       30.674104      67.312533    
     47400   249.20011      0.1896         0.74767502    -5287.5784     -5926.9         30.91323       30.674104      67.335175    
     47500   248.268        0.19           0.78015664    -5714.6745     -5752.9008      30.91323       30.674104      67.357816    
     47600   250.39712      0.1904         0.76953366    -4727.4911     -5404.0104      30.91323       30.674104      67.380457    
     47700   248.79049      0.1908            30.674104      66.791784    
     45100   249.17747      0.1804         0.60656085    -4033.9082     -5105.0713      30.91323       30.674104      66.814425    
     45200   243.36338      0.1808         0.68126609    -5265.0518     -5550.7372      30.91323       30.674104      66.837066    
     45300   247.83386      0.1812         0.69158866    -5453.3351     -5699.0261      30.91323       30.674104      66.859708    
     45400   252.73581      0.1816         0.74859848         48100   247.67332      0.1924         0.63035602    -4252.1538     -4912.9302      30.91323       30.674104      67.493664    
     48200   245.3161       0.1928         0.61065036    -4664.9001     -5115.5423      30.91323       30.674104      67.516305    
     48300   247.6905       0.1932         0.56376856    -4195.9253     -4815.1035      30.91323       30.674104      67.538946    
     48400   243.5926       0.1936         0.55575456    -4279.0607     -4539.8505      30.91323       30.674104      67.561587    
     48500   247.25828      0.194          0.54651888    -4429.4544     -4624.4329      30.91323       30.674104      67.584229    
     48600   257.77081      0.1944         0.4339562     -3444.5317     -3898.9986      30.91323       30.674104      67.60687     
     48700   249.22966      0.1948         0.48863123    -4143.2632     -4759.8137      30.91323       30.674104      67.629511    
     48800   245.78544      0.1952         0.41353312    -3618.1835     -4019.9041      30.91323       30.674104      67.652153    
     48900   254.69844      0.1956         0.35707031    -3313.3491     -3937.661       30.91323       30.674104      67.674794    
     49000   250.35826      0.196          0.29170048    -3209.9912     -3940.3293      30.91323       30.674104      67.697435    
     49100   242.6179       0.1964         0.19977317    -2261.0926     -3096.4955      30.91323       30.674104      67.720076    
     49200   251.51591      0.1968         0.18885915    -2345.0279     -3330.6402      30.91323       30.674104      67.742718    
     49300   249.80787      0.1972         0.14676567    -2241.8195     -2856.9918      30.91323       30.674104      67.765359    
Fix halt condition for fix-id halt_frac met on step 49400 with value 1
     49400   244.6196       0.1976         0.07448221    -2037.4194     -2888.8643      30.91323       30.674104      67.788       
Loop time of 126.766 on 4 procs for 49400 steps with 4164 atoms

Performance: 67.339 ns/day, 0.356 hours/ns, 389.693 timesteps/s, 1.623 Matom-step/s
103.5% CPU use with 4 MPI tasks x 1 OpenMP threads

MPI task timing breakdown:
Section |  min time  |  avg time  |  max time  |%varavg| %total
---------------------------------------------------------------
Pair    | 73.462     | 97.319     | 118.24     | 189.2 | 76.77
Neigh   | 0.43837    | 1.139      | 1.7783     |  49.7 |  0.90
Comm    | 3.0802     | 22.849     | 41.75      | 354.4 | 18.02
Output  | 1.4358     | 1.809      | 2.1658     |  20.0 |  1.43
Modify  | 1.1092     | 3.0439     | 8.6598     | 185.9 |  2.40
Other   |            | 0.6061     |            |       |  0.48

Nlocal:           1041 ave        1440 max         501 min
Histogram: 1 0 0 0 1 0 0 0 1 1
Nghost:        3232.75 ave        4776 max        1619 min
Histogram: 1 0 0 1 0 0 1 0 0 1
Neighs:        92759.8 ave      160325 max       22994 min
Histogram: 1 0 1 0 0 0 0 1 0 1

Total # of neighbors = 371039
Ave neighs/atom = 89.106388
Neighbor list builds = 742
Dangerous builds = 0
Total wall time: 0:02:50
.8786      30.91323       30.674104      67.403098    
     47800   245.26472      0.1912         0.7490192     -5668.0944     -6272.6073      30.91323       30.674104      67.42574     
     47900   248.06156      0.1916         0.67636039    -4188.0557     -5261.9741      30.91323       30.674104      67.448381    
     48000   247.35194      0.192          0.60702899    -4380.1155     -5129.1878      30.91323       30.674104      67.471022    
     48100   247.67332      0.1924         0.63035602    -4252.1538     -4912.9302      30.91323       30.674104      67.493664    
     48200   245.3161       0.1928         0.61065036    -4664.9001     -5115.5423      30.91323       30.674104      67.516305    
     48300   247.6905       0.1932         0.56376856    -4195.9253     -4815.1035      30.91323       30.674104      67.538946    
     48400   243.5926       0.1936         0.55575456    -4279.0607     -4539.8505      30.91323       30.674104      67.561587    
     48500   247.25828      0.194          0.54651888    -4429.4544     -4624.4329      30.91323       30.674104      67.584229    
     48600   257.77081      0.1944         0.4339562     -3444.5317     -3898.9986      30.91323       30.674104      67.60687     
     48700   249.22966      0.1948         0.48863123    -4143.2632     -4759.8137      30.91323       30.674104      67.629511    
     48800   245.78544      0.1952         0.41353312    -3618.1835     -4019.9041      30.91323       30.674104      67.652153    
     48900   254.69844      0.1956         0.35707031    -3313.3491     -3937.661       30.91323       30.674104      67.674794    
     49000   250.35826      0.196          0.29170048    -3209.9912     -3940.3293      30.91323       30.674104      67.697435    
     49100   242.6179       0.1964         0.19977317    -2261.0926     -3096.4955      30.91323       30.674104      67.720076    
     49200   251.51591      0.1968         0.18885915    -2345.0279     -3330.6402      30.91323       30.674104      67.742718    
     49300   249.80787      0.1972         0.14676567    -2241.8195     -2856.9918      30.91323       30.674104      67.765359    
Fix halt condition for fix-id halt_frac met on step 49400 with value 1
     49400   244.6196       0.1976         0.07448221    -2037.4194     -2888.8643      30.91323       30.674104      67.788       
Loop time of 126.766 on 4 procs for 49400 steps with 4164 atoms

Performance: 67.339 ns/day, 0.356 hours/ns, 389.693 timesteps/s, 1.623 Matom-step/s
103.5% CPU use with 4 MPI tasks x 1 OpenMP threads

MPI task timing breakdown:
Section |  min time  |  avg time  |  max time  |%varavg| %total
---------------------------------------------------------------
Pair    | 73.462     | 97.319     | 118.24     | 189.2 | 76.77
Neigh   | 0.43837    | 1.139      | 1.7783     |  49.7 |  0.90
Comm    | 3.0802     | 22.849     | 41.75      | 354.4 | 18.02
Output  | 1.4358     | 1.809      | 2.1658     |  20.0 |  1.43
Modify  | 1.1092     | 3.0439     | 8.6598     | 185.9 |  2.40
Other   |            | 0.6061     |            |       |  0.48

Nlocal:           1041 ave        1440 max         501 min
Histogram: 1 0 0 0 1 0 0 0 1 1
Nghost:        3232.75 ave        4776 max        1619 min
Histogram: 1 0 0 1 0 0 1 0 0 1
Neighs:        92759.8 ave      160325 max       22994 min
Histogram: 1 0 1 0 0 0 0 1 0 1

Total # of neighbors = 371039
Ave neighs/atom = 89.106388
Neighbor list builds = 742
Dangerous builds = 0
Total wall time: 0:02:50
