(written by ASE)

6912 atoms
1 atom types

0.0      48.936000000000007  xlo xhi
0.0      48.936000000000007  ylo yhi
0.0      48.936000000000007  zlo zhi

Atoms # atomic

     1   1                       0                       0                       0
     2   1                       0      2.0390000000000001      2.0390000000000001
     3   1      2.0390000000000001                       0      2.0390000000000001
     4   1      2.0390000000000001      2.0390000000000001                       0
     5   1                       0                       0      4.0780000000000003
     6   1                       0      2.0390000000000001      6.1170000000000009
     7   1      2.0390000000000001                       0      6.1170000000000009
     8   1      2.0390000000000001      2.0390000000000001      4.0780000000000003
     9   1                       0                       0      8.1560000000000006
    10   1                       0      2.0390000000000001                  10.195
    11   1      2.0390000000000001                       0                  10.195
    12   1      2.0390000000000001      2.0390000000000001      8.1560000000000006
    13   1                       0                       0      12.234000000000002
    14   1                       0      2.0390000000000001      14.273000000000001
    15   1      2.0390000000000001                       0      14.273000000000001
    16   1      2.0390000000000001      2.0390000000000001      12.234000000000002
    17   1                       0                       0      16.312000000000001
    18   1                       0      2.0390000000000001      18.351000000000003
    19   1      2.0390000000000001                       0      18.351000000000003
    20   1      2.0390000000000001      2.0390000000000001      16.312000000000001
    21   1                       0                       0      20.390000000000001
    22   1                       0      2.0390000000000001      22.429000000000002
    23   1      2.0390000000000001                       0      22.429000000000002
    24   1      2.0390000000000001      2.0390000000000001      20.390000000000001
    25   1                       0                       0      24.468000000000004
    26   1                       0      2.0390000000000001      26.507000000000005
    27   1      2.0390000000000001                       0      26.507000000000005
    28   1      2.0390000000000001      2.0390000000000001      24.468000000000004
    29   1                       0                       0      28.546000000000003
    30   1                       0      2.0390000000000001      30.585000000000004
    31   1      2.0390000000000001                       0      30.585000000000004
    32   1      2.0390000000000001      2.0390000000000001      28.546000000000003
    33   1                       0                       0      32.624000000000002
    34   1                       0      2.0390000000000001      34.663000000000004
    35   1      2.0390000000000001                       0      34.663000000000004
    36   1      2.0390000000000001      2.0390000000000001      32.624000000000002
    37   1                       0                       0      36.702000000000005
    38   1                       0      2.0390000000000001      38.741000000000007
    39   1      2.0390000000000001                       0      38.741000000000007
    40   1      2.0390000000000001      2.0390000000000001      36.702000000000005
    41   1                       0                       0      40.780000000000001
    42   1                       0      2.0390000000000001      42.819000000000003
    43   1      2.0390000000000001                       0      42.819000000000003
    44   1      2.0390000000000001      2.0390000000000001      40.780000000000001
    45   1                       0                       0      44.858000000000004
    46   1                       0      2.0390000000000001      46.897000000000006
    47   1      2.0390000000000001                       0      46.897000000000006
    48   1      2.0390000000000001      2.0390000000000001      44.858000000000004
    49   1                       0      4.0780000000000003                       0
    50   1                       0      6.1170000000000009      2.0390000000000001
    51   1      2.0390000000000001      4.0780000000000003      2.0390000000000001
    52   1      2.0390000000000001      6.1170000000000009                       0
    53   1                       0      4.0780000000000003      4.0780000000000003
    54   1                       0      6.1170000000000009      6.1170000000000009
    55   1      2.0390000000000001      4.0780000000000003      6.1170000000000009
    56   1      2.0390000000000001      6.1170000000000009      4.0780000000000003
    57   1                       0      4.0780000000000003      8.1560000000000006
    58   1                       0      6.1170000000000009                  10.195
    59   1      2.0390000000000001      4.0780000000000003                  10.195
    60   1      2.0390000000000001      6.1170000000000009      8.1560000000000006
    61   1                       0      4.0780000000000003      12.234000000000002
    62   1                       0      6.1170000000000009      14.273000000000001
    63   1      2.0390000000000001      4.0780000000000003      14.273000000000001
    64   1      2.0390000000000001      6.1170000000000009      12.234000000000002
    65   1                       0      4.0780000000000003      16.312000000000001
    66   1                       0      6.1170000000000009      18.351000000000003
    67   1      2.0390000000000001      4.0780000000000003      18.351000000000003
    68   1      2.0390000000000001      6.1170000000000009      16.312000000000001
    69   1                       0      4.0780000000000003      20.390000000000001
    70   1                       0      6.1170000000000009      22.429000000000002
    71   1      2.0390000000000001      4.0780000000000003      22.429000000000002
    72   1      2.0390000000000001      6.1170000000000009      20.390000000000001
    73   1                       0      4.0780000000000003      24.468000000000004
    74   1                       0      6.1170000000000009      26.507000000000005
    75   1      2.0390000000000001      4.0780000000000003      26.507000000000005
    76   1      2.0390000000000001      6.1170000000000009      24.468000000000004
    77   1                       0      4.0780000000000003      28.546000000000003
    78   1                       0      6.1170000000000009      30.585000000000004
    79   1      2.0390000000000001      4.0780000000000003      30.585000000000004
    80   1      2.0390000000000001      6.1170000000000009      28.546000000000003
    81   1                       0      4.0780000000000003      32.624000000000002
    82   1                       0      6.1170000000000009      34.663000000000004
    83   1      2.0390000000000001      4.0780000000000003      34.663000000000004
    84   1      2.0390000000000001      6.1170000000000009      32.624000000000002
    85   1                       0      4.0780000000000003      36.702000000000005
    86   1                       0      6.1170000000000009      38.741000000000007
    87   1      2.0390000000000001      4.0780000000000003      38.741000000000007
    88   1      2.0390000000000001      6.1170000000000009      36.702000000000005
    89   1                       0      4.0780000000000003      40.780000000000001
    90   1                       0      6.1170000000000009      42.819000000000003
    91   1      2.0390000000000001      4.0780000000000003      42.819000000000003
    92   1      2.0390000000000001      6.1170000000000009      40.780000000000001
    93   1                       0      4.0780000000000003      44.858000000000004
    94   1                       0      6.1170000000000009      46.897000000000006
    95   1      2.0390000000000001      4.0780000000000003      46.897000000000006
    96   1      2.0390000000000001      6.1170000000000009      44.858000000000004
    97   1                       0      8.1560000000000006                       0
    98   1                       0                  10.195      2.0390000000000001
    99   1      2.0390000000000001      8.1560000000000006      2.0390000000000001
   100   1      2.0390000000000001                  10.195                       0
   101   1                       0      8.1560000000000006      4.0780000000000003
   102   1                       0                  10.195      6.1170000000000009
   103   1      2.0390000000000001      8.1560000000000006      6.1170000000000009
   104   1      2.0390000000000001                  10.195      4.0780000000000003
   105   1                       0      8.1560000000000006      8.1560000000000006
   106   1                       0                  10.195                  10.195
   107   1      2.0390000000000001      8.1560000000000006                  10.195
   108   1      2.0390000000000001                  10.195      8.1560000000000006
   109   1                       0      8.1560000000000006      12.234000000000002
   110   1                       0                  10.195      14.273000000000001
   111   1      2.0390000000000001      8.1560000000000006      14.273000000000001
   112   1      2.0390000000000001                  10.195      12.234000000000002
   113   1                       0      8.1560000000000006      16.312000000000001
   114   1                       0                  10.195      18.351000000000003
   115   1      2.0390000000000001      8.1560000000000006      18.351000000000003
   116   1      2.0390000000000001                  10.195      16.312000000000001
   117   1                       0      8.1560000000000006      20.390000000000001
   118   1                       0                  10.195      22.429000000000002
   119   1      2.0390000000000001      8.1560000000000006      22.429000000000002
   120   1      2.0390000000000001                  10.195      20.390000000000001
   121   1                       0      8.1560000000000006      24.468000000000004
   122   1                       0                  10.195      26.507000000000005
   123   1      2.0390000000000001      8.1560000000000006      26.507000000000005
   124   1      2.0390000000000001                  10.195      24.468000000000004
   125   1                       0      8.1560000000000006      28.546000000000003
   126   1                       0                  10.195      30.585000000000004
   127   1      2.0390000000000001      8.1560000000000006      30.585000000000004
   128   1      2.0390000000000001                  10.195      28.546000000000003
   129   1                       0      8.1560000000000006      32.624000000000002
   130   1                       0                  10.195      34.663000000000004
   131   1      2.0390000000000001      8.1560000000000006      34.663000000000004
   132   1      2.0390000000000001                  10.195      32.624000000000002
   133   1                       0      8.1560000000000006      36.702000000000005
   134   1                       0                  10.195      38.741000000000007
   135   1      2.0390000000000001      8.1560000000000006      38.741000000000007
   136   1      2.0390000000000001                  10.195      36.702000000000005
   137   1                       0      8.1560000000000006      40.780000000000001
   138   1                       0                  10.195      42.819000000000003
   139   1      2.0390000000000001      8.1560000000000006      42.819000000000003
   140   1      2.0390000000000001                  10.195      40.780000000000001
   141   1                       0      8.1560000000000006      44.858000000000004
   142   1                       0                  10.195      46.897000000000006
   143   1      2.0390000000000001      8.1560000000000006      46.897000000000006
   144   1      2.0390000000000001                  10.195      44.858000000000004
   145   1                       0      12.234000000000002                       0
   146   1                       0      14.273000000000001      2.0390000000000001
   147   1      2.0390000000000001      12.234000000000002      2.0390000000000001
   148   1      2.0390000000000001      14.273000000000001                       0
   149   1                       0      12.234000000000002      4.0780000000000003
   150   1                       0      14.273000000000001      6.1170000000000009
   151   1      2.0390000000000001      12.234000000000002      6.1170000000000009
   152   1      2.0390000000000001      14.273000000000001      4.0780000000000003
   153   1                       0      12.234000000000002      8.1560000000000006
   154   1                       0      14.273000000000001                  10.195
   155   1      2.0390000000000001      12.234000000000002                  10.195
   156   1      2.0390000000000001      14.273000000000001      8.1560000000000006
   157   1                       0      12.234000000000002      12.234000000000002
   158   1                       0      14.273000000000001      14.273000000000001
   159   1      2.0390000000000001      12.234000000000002      14.273000000000001
   160   1      2.0390000000000001      14.273000000000001      12.234000000000002
   161   1                       0      12.234000000000002      16.312000000000001
   162   1                       0      14.273000000000001      18.351000000000003
   163   1      2.0390000000000001      12.234000000000002      18.351000000000003
   164   1      2.0390000000000001      14.273000000000001      16.312000000000001
   165   1                       0      12.234000000000002      20.390000000000001
   166   1                       0      14.273000000000001      22.429000000000002
   167   1      2.0390000000000001      12.234000000000002      22.429000000000002
   168   1      2.0390000000000001      14.273000000000001      20.390000000000001
   169   1                       0      12.234000000000002      24.468000000000004
   170   1                       0      14.273000000000001      26.507000000000005
   171   1      2.0390000000000001      12.234000000000002      26.507000000000005
   172   1      2.0390000000000001      14.273000000000001      24.468000000000004
   173   1                       0      12.234000000000002      28.546000000000003
   174   1                       0      14.273000000000001      30.585000000000004
   175   1      2.0390000000000001      12.234000000000002      30.585000000000004
   176   1      2.0390000000000001      14.273000000000001      28.546000000000003
   177   1                       0      12.234000000000002      32.624000000000002
   178   1                       0      14.273000000000001      34.663000000000004
   179   1      2.0390000000000001      12.234000000000002      34.663000000000004
   180   1      2.0390000000000001      14.273000000000001      32.624000000000002
   181   1                       0      12.234000000000002      36.702000000000005
   182   1                       0      14.273000000000001      38.741000000000007
   183   1      2.0390000000000001      12.234000000000002      38.741000000000007
   184   1      2.0390000000000001      14.273000000000001      36.702000000000005
   185   1                       0      12.234000000000002      40.780000000000001
   186   1                       0      14.273000000000001      42.819000000000003
   187   1      2.0390000000000001      12.234000000000002      42.819000000000003
   188   1      2.0390000000000001      14.273000000000001      40.780000000000001
   189   1                       0      12.234000000000002      44.858000000000004
   190   1                       0      14.273000000000001      46.897000000000006
   191   1      2.0390000000000001      12.234000000000002      46.897000000000006
   192   1      2.0390000000000001      14.273000000000001      44.858000000000004
   193   1                       0      16.312000000000001                       0
   194   1                       0      18.351000000000003      2.0390000000000001
   195   1      2.0390000000000001      16.312000000000001      2.0390000000000001
   196   1      2.0390000000000001      18.351000000000003                       0
   197   1                       0      16.312000000000001      4.0780000000000003
   198   1                       0      18.351000000000003      6.1170000000000009
   199   1      2.0390000000000001      16.312000000000001      6.1170000000000009
   200   1      2.0390000000000001      18.351000000000003      4.0780000000000003
   201   1                       0      16.312000000000001      8.1560000000000006
   202   1                       0      18.351000000000003                  10.195
   203   1      2.0390000000000001      16.312000000000001                  10.195
   204   1      2.0390000000000001      18.351000000000003      8.1560000000000006
   205   1                       0      16.312000000000001      12.234000000000002
   206   1                       0      18.351000000000003      14.273000000000001
   207   1      2.0390000000000001      16.312000000000001      14.273000000000001
   208   1      2.0390000000000001      18.351000000000003      12.234000000000002
   209   1                       0      16.312000000000001      16.312000000000001
   210   1                       0      18.351000000000003      18.351000000000003
   211   1      2.0390000000000001      16.312000000000001      18.351000000000003
   212   1      2.0390000000000001      18.351000000000003      16.312000000000001
   213   1                       0      16.312000000000001      20.390000000000001
   214   1                       0      18.351000000000003      22.429000000000002
   215   1      2.0390000000000001      16.312000000000001      22.429000000000002
   216   1      2.0390000000000001      18.351000000000003      20.390000000000001
   217   1                       0      16.312000000000001      24.468000000000004
   218   1                       0      18.351000000000003      26.507000000000005
   219   1      2.0390000000000001      16.312000000000001      26.507000000000005
   220   1      2.0390000000000001      18.351000000000003      24.468000000000004
   221   1                       0      16.312000000000001      28.546000000000003
   222   1                       0      18.351000000000003      30.585000000000004
   223   1      2.0390000000000001      16.312000000000001      30.585000000000004
   224   1      2.0390000000000001      18.351000000000003      28.546000000000003
   225   1                       0      16.312000000000001      32.624000000000002
   226   1                       0      18.351000000000003      34.663000000000004
   227   1      2.0390000000000001      16.312000000000001      34.663000000000004
   228   1      2.0390000000000001      18.351000000000003      32.624000000000002
   229   1                       0      16.312000000000001      36.702000000000005
   230   1                       0      18.351000000000003      38.741000000000007
   231   1      2.0390000000000001      16.312000000000001      38.741000000000007
   232   1      2.0390000000000001      18.351000000000003      36.702000000000005
   233   1                       0      16.312000000000001      40.780000000000001
   234   1                       0      18.351000000000003      42.819000000000003
   235   1      2.0390000000000001      16.312000000000001      42.819000000000003
   236   1      2.0390000000000001      18.351000000000003      40.780000000000001
   237   1                       0      16.312000000000001      44.858000000000004
   238   1                       0      18.351000000000003      46.897000000000006
   239   1      2.0390000000000001      16.312000000000001      46.897000000000006
   240   1      2.0390000000000001      18.351000000000003      44.858000000000004
   241   1                       0      20.390000000000001                       0
   242   1                       0      22.429000000000002      2.0390000000000001
   243   1      2.0390000000000001      20.390000000000001      2.0390000000000001
   244   1      2.0390000000000001      22.429000000000002                       0
   245   1                       0      20.390000000000001      4.0780000000000003
   246   1                       0      22.429000000000002      6.1170000000000009
   247   1      2.0390000000000001      20.390000000000001      6.1170000000000009
   248   1      2.0390000000000001      22.429000000000002      4.0780000000000003
   249   1                       0      20.390000000000001      8.1560000000000006
   250   1                       0      22.429000000000002                  10.195
   251   1      2.0390000000000001      20.390000000000001                  10.195
   252   1      2.0390000000000001      22.429000000000002      8.1560000000000006
   253   1                       0      20.390000000000001      12.234000000000002
   254   1                       0      22.429000000000002      14.273000000000001
   255   1      2.0390000000000001      20.390000000000001      14.273000000000001
   256   1      2.0390000000000001      22.429000000000002      12.234000000000002
   257   1                       0      20.390000000000001      16.312000000000001
   258   1                       0      22.429000000000002      18.351000000000003
   259   1      2.0390000000000001      20.390000000000001      18.351000000000003
   260   1      2.0390000000000001      22.429000000000002      16.312000000000001
   261   1                       0      20.390000000000001      20.390000000000001
   262   1                       0      22.429000000000002      22.429000000000002
   263   1      2.0390000000000001      20.390000000000001      22.429000000000002
   264   1      2.0390000000000001      22.429000000000002      20.390000000000001
   265   1                       0      20.390000000000001      24.468000000000004
   266   1                       0      22.429000000000002      26.507000000000005
   267   1      2.0390000000000001      20.390000000000001      26.507000000000005
   268   1      2.0390000000000001      22.429000000000002      24.468000000000004
   269   1                       0      20.390000000000001      28.546000000000003
   270   1                       0      22.429000000000002      30.585000000000004
   271   1      2.0390000000000001      20.390000000000001      30.585000000000004
   272   1      2.0390000000000001      22.429000000000002      28.546000000000003
   273   1                       0      20.390000000000001      32.624000000000002
   274   1                       0      22.429000000000002      34.663000000000004
   275   1      2.0390000000000001      20.390000000000001      34.663000000000004
   276   1      2.0390000000000001      22.429000000000002      32.624000000000002
   277   1                       0      20.390000000000001      36.702000000000005
   278   1                       0      22.429000000000002      38.741000000000007
   279   1      2.0390000000000001      20.390000000000001      38.741000000000007
   280   1      2.0390000000000001      22.429000000000002      36.702000000000005
   281   1                       0      20.390000000000001      40.780000000000001
   282   1                       0      22.429000000000002      42.819000000000003
   283   1      2.0390000000000001      20.390000000000001      42.819000000000003
   284   1      2.0390000000000001      22.429000000000002      40.780000000000001
   285   1                       0      20.390000000000001      44.858000000000004
   286   1                       0      22.429000000000002      46.897000000000006
   287   1      2.0390000000000001      20.390000000000001      46.897000000000006
   288   1      2.0390000000000001      22.429000000000002      44.858000000000004
   289   1                       0      24.468000000000004                       0
   290   1                       0      26.507000000000005      2.0390000000000001
   291   1      2.0390000000000001      24.468000000000004      2.0390000000000001
   292   1      2.0390000000000001      26.507000000000005                       0
   293   1                       0      24.468000000000004      4.0780000000000003
   294   1                       0      26.507000000000005      6.1170000000000009
   295   1      2.0390000000000001      24.468000000000004      6.1170000000000009
   296   1      2.0390000000000001      26.507000000000005      4.0780000000000003
   297   1                       0      24.468000000000004      8.1560000000000006
   298   1                       0      26.507000000000005                  10.195
   299   1      2.0390000000000001      24.468000000000004                  10.195
   300   1      2.0390000000000001      26.507000000000005      8.1560000000000006
   301   1                       0      24.468000000000004      12.234000000000002
   302   1                       0      26.507000000000005      14.273000000000001
   303   1      2.0390000000000001      24.468000000000004      14.273000000000001
   304   1      2.0390000000000001      26.507000000000005      12.234000000000002
   305   1                       0      24.468000000000004      16.312000000000001
   306   1                       0      26.507000000000005      18.351000000000003
   307   1      2.0390000000000001      24.468000000000004      18.351000000000003
   308   1      2.0390000000000001      26.507000000000005      16.312000000000001
   309   1                       0      24.468000000000004      20.390000000000001
   310   1                       0      26.507000000000005      22.429000000000002
   311   1      2.0390000000000001      24.468000000000004      22.429000000000002
   312   1      2.0390000000000001      26.507000000000005      20.390000000000001
   313   1                       0      24.468000000000004      24.468000000000004
   314   1                       0      26.507000000000005      26.507000000000005
   315   1      2.0390000000000001      24.468000000000004      26.507000000000005
   316   1      2.0390000000000001      26.507000000000005      24.468000000000004
   317   1                       0      24.468000000000004      28.546000000000003
   318   1                       0      26.507000000000005      30.585000000000004
   319   1      2.0390000000000001      24.468000000000004      30.585000000000004
   320   1      2.0390000000000001      26.507000000000005      28.546000000000003
   321   1                       0      24.468000000000004      32.624000000000002
   322   1                       0      26.507000000000005      34.663000000000004
   323   1      2.0390000000000001      24.468000000000004      34.663000000000004
   324   1      2.0390000000000001      26.507000000000005      32.624000000000002
   325   1                       0      24.468000000000004      36.702000000000005
   326   1                       0      26.507000000000005      38.741000000000007
   327   1      2.0390000000000001      24.468000000000004      38.741000000000007
   328   1      2.0390000000000001      26.507000000000005      36.702000000000005
   329   1                       0      24.468000000000004      40.780000000000001
   330   1                       0      26.507000000000005      42.819000000000003
   331   1      2.0390000000000001      24.468000000000004      42.819000000000003
   332   1      2.0390000000000001      26.507000000000005      40.780000000000001
   333   1                       0      24.468000000000004      44.858000000000004
   334   1                       0      26.507000000000005      46.897000000000006
   335   1      2.0390000000000001      24.468000000000004      46.897000000000006
   336   1      2.0390000000000001      26.507000000000005      44.858000000000004
   337   1                       0      28.546000000000003                       0
   338   1                       0      30.585000000000004      2.0390000000000001
   339   1      2.0390000000000001      28.546000000000003      2.0390000000000001
   340   1      2.0390000000000001      30.585000000000004                       0
   341   1                       0      28.546000000000003      4.0780000000000003
   342   1                       0      30.585000000000004      6.1170000000000009
   343   1      2.0390000000000001      28.546000000000003      6.1170000000000009
   344   1      2.0390000000000001      30.585000000000004      4.0780000000000003
   345   1                       0      28.546000000000003      8.1560000000000006
   346   1                       0      30.585000000000004                  10.195
   347   1      2.0390000000000001      28.546000000000003                  10.195
   348   1      2.0390000000000001      30.585000000000004      8.1560000000000006
   349   1                       0      28.546000000000003      12.234000000000002
   350   1                       0      30.585000000000004      14.273000000000001
   351   1      2.0390000000000001      28.546000000000003      14.273000000000001
   352   1      2.0390000000000001      30.585000000000004      12.234000000000002
   353   1                       0      28.546000000000003      16.312000000000001
   354   1                       0      30.585000000000004      18.351000000000003
   355   1      2.0390000000000001      28.546000000000003      18.351000000000003
   356   1      2.0390000000000001      30.585000000000004      16.312000000000001
   357   1                       0      28.546000000000003      20.390000000000001
   358   1                       0      30.585000000000004      22.429000000000002
   359   1      2.0390000000000001      28.546000000000003      22.429000000000002