LAMMPS (10 Dec 2025)
OMP_NUM_THREADS environment is not set. Defaulting to 1 thread.
  using 1 OpenMP thread(s) per MPI task
Reading data file ...
  orthogonal box = (0 0 0) to (20.449528 17.709811 18.784091)
  1 by 1 by 1 MPI processor grid
  reading atoms ...
  576 atoms
  read_data CPU = 0.004 seconds
Changing box ...
  triclinic box = (0 0 0) to (20.449528 17.709811 18.784091) with tilt (0 0 0)
Reading eam/alloy potential file /mnt/c/Users/iwash/Documents/Repositories/Simulation/potentials/Cu_zhou.eam.alloy with DATE: 2007-10-12
=== Phase 1: 0K Relaxation ===
Switching to 'neigh_modify every 1 delay 0 check yes' setting during minimization
Neighbor list info ...
  update: every = 1 steps, delay = 0 steps, check = yes
  max neighbors/atom: 2000, page size: 100000
  master list distance cutoff = 11.0375
  ghost atom cutoff = 11.0375
  binsize = 5.51875, bins = 4 4 4
  1 neighbor lists, perpetual/occasional/extra = 1 0 0
  (1) pair eam/alloy, perpetual
      attributes: half, newton on
      pair build: half/bin/atomonly/newton/tri
      stencil: half/bin/3d/tri
      bin: standard
Setting up cg style minimization ...
  Unit style    : metal
  Current step  : 0
WARNING: Energy due to 3 extra global DOFs will be included in minimizer energies
 (src/min.cpp:222)
Per MPI rank memory allocation (min/avg/max) = 5.092 | 5.092 | 5.092 Mbytes
   Step          Temp          PotEng         Press           Pxx            Pyy            Pzz             Lx             Ly             Lz      
         0   0             -2038.9268     -214.13474     -214.13474     -214.13474     -214.13474      20.449528      17.709811      18.784091    
         2   0             -2038.9268     -0.0052365602  -0.0052365601  -0.0052365601  -0.0052365603   20.448472      17.708896      18.783121    
Loop time of 0.0128858 on 1 procs for 2 steps with 576 atoms

101.7% CPU use with 1 MPI tasks x 1 OpenMP threads

Minimization stats:
  Stopping criterion = energy tolerance
  Energy initial, next-to-last, final = 
     -2038.92676608287  -2038.92683654129  -2038.92683654753
  Force two-norm initial, final = 1.5747978 3.850693e-05
  Force max component initial, final = 0.90920995 2.2231987e-05
  Final line search alpha, max atom move = 0.22831472 5.0758897e-06
  Iterations, force evaluations = 2 4

MPI task timing breakdown:
Section |  min time  |  avg time  |  max time  |%varavg| %total
---------------------------------------------------------------
Pair    | 0.012636   | 0.012636   | 0.012636   |   0.0 | 98.06
Neigh   | 0          | 0          | 0          |   0.0 |  0.00
Comm    | 5.4546e-05 | 5.4546e-05 | 5.4546e-05 |   0.0 |  0.42
Output  | 0          | 0          | 0          |   0.0 |  0.00
Modify  | 0          | 0          | 0          |   0.0 |  0.00
Other   |            | 0.000195   |            |       |  1.51

Nlocal:            576 ave         576 max         576 min
Histogram: 1 0 0 0 0 0 0 0 0 0
Nghost:           5268 ave        5268 max        5268 min
Histogram: 1 0 0 0 0 0 0 0 0 0
Neighs:         131904 ave      131904 max      131904 min
Histogram: 1 0 0 0 0 0 0 0 0 0

Total # of neighbors = 131904
Ave neighs/atom = 229
Neighbor list builds = 0
Dangerous builds = 0
=== Phase 2: Equilibration at 300.0K ===
Setting up Verlet run ...
  Unit style    : metal
  Current step  : 0
  Time step     : 0.002
Per MPI rank memory allocation (min/avg/max) = 3.982 | 3.982 | 3.982 Mbytes
   Step          Temp          PotEng         Press           Pxx            Pyy            Pzz             Lx             Ly             Lz      
         0   300           -2038.92unfix relax

print '=== Phase 2: Equilibration at 300.0K ==='
=== Phase 2: Equilibration at 300.0K ===
reset_timestep 0
velocity all create 300.0 97711 dist gaussian
fix eq all npt temp 300.0 300.0 0.1 tri 0.0 0.0 1.0
run 2500
Per MPI rank memory allocation (min/avg/max) = 3.982 | 3.982 | 3.982 Mbytes
   Step          Temp          PotEng         Press           Pxx            Pyy            Pzz             Lx             Ly             Lz      
         0   300           -2038.9268      3501.4836      3257.8339       17.764392      18.821627    
       400   301.80228     -2014.128      -3796.0557     -2690.0743     -4213.1246     -4484.9681      20.509097      17.784048      18.870024    
       500   272.7343      -2016.0238     -7963.1251     -7441.0065     -8934.7017     -7513.6669      20.545773      17.80056       18.859096    
       600   304.24699     -2016.3921     -11439.914     -12578.213     -9841.1874     -11900.342      20.5855        17.780427      18.900683    
       700   300.63617     -2013.9485     -11190.679     -9012.4877     -12960.809     -11598.742      20.534197      17.852656      18.881625    
       800   281.66184     -2015.2988     -9138.1304     -11342.816     -6474.0247     -9597.5507      20.590766      17.751057      18.889803    
       900   311.24011     -2017.3011     -5659.4933     -4509.8732     -8137.3723     -4331.2345      20.515535      17.814114      18.843407    
      1000   285.39002     -2014.1606     -1151.4532     -1893.0063     -58.902894     -1502.4504      20.525692      17.741757      18.859333    
      1100   318.55993     -2016.6351      1243.5027      217.68749      677.4667       2835.3538      20.490138      17.772524      18.811084    
      1200   299.09165     -2017.0515      4134.0877      5144.4717      4172.5116      3085.2796      20.472275      17.736264      18.818905    
      1300   300.45459     -2015.6989      6841.9803      6321.4966      8953.9183      5250.526       20.481373      17.694149      18.830929    
      1400   300.92115     -2015.312       7369.5812      7746.7022      4658.4986      9703.5427      20.443861      17.773845      18.770674    
      1500   296.67831     -2016.682       6887.0363      6355.9331      8200.339       6104.8367      20.479214      17.702274      18.815381    
      1600   281.70822     -2015.5978      5816.209       7311.2105      5140.4701      4996.9465      20.463171      17.73327       18.815421    
      1700   308.14951     -2015.6753      2354.3517      1544.7122      1495.4876      4022.8552      20.501969      17.766318      18.798534    
      1800   299.21118     -2016.9611     -1544.7258     -945.40933     -702.59913     -2986.169       20.497124      17.752         18.864072    
      1900   308.00182     -2016.3609     -4762.7096     -4384.8583     -5287.3749     -4615.8957      20.548931      17.763155      18.858425    
      2000   316.15374     -2015.4897     -7383.5144     -9197.2904     -7422.1276     -5531.1251      20.575022      17.790619      18.847014    
      2100   287.7412      -2015.8469     -7609.4832     -5623.3582     -6993.3977     -10211.694      20.492436      17.804975      18.907597    
      2200   300.60865     -2015.579      -7317.4271     -9060.7852     -7862.9401     -5028.556       20.579284      17.793279      18.83758     
      2300   306.83652     -2016.0768     -5804.0541     -6229.0805     -4647.343      -6535.7387      20.549627      17.753425      18.883479    
      2400   293.89312     -2015.4118     -2723.3178     -1260.934      -3848.7389     -3060.2806      20.472669      17.807279      18.854285    
      2500   291.37147     -2015.6953      184.1551      -2702.2986      182.09087      3072.673       20.561708      17.751214      18.788103    
Loop time of 7.07141 on 1 procs for 2500 steps with 576 atoms

Performance: 61.091 ns/day, 0.393 hours/ns, 353.536 timesteps/s, 203.637 katom-step/s
108.6% CPU use with 1 MPI tasks x 1 OpenMP threads

MPI task timing breakdown:
Section |  min time  |  avg time  |  max time  |%varavg| %total
-----------------17.807279      18.854285    
      2500   291.37147     -2015.6953      184.1551      -2702.2986      182.09087      3072.673       20.561708      17.751214      18.788103    
Loop time of 7.07141 on 1 procs for 2500 steps with 576 atoms

Performance: 61.091 ns/day, 0.393 hours/ns, 353.536 timesteps/s, 203.637 katom-step/s
108.6% CPU use with 1 MPI tasks x 1 OpenMP threads

MPI task timing breakdown:
Section |  min time  |  avg time  |  max time  |%varavg| %total
--------------------------------------------------host:           5268 ave        5268 max        5268 min
Histogram: 1 0 0 0 0 0 0 0 0 0
Neighs:         131904 ave      131904 max      131904 min
Histogram: 1 0 0 0 0 0 0 0 0 0

Total # of neighbors = 131904
Ave neighs/atom = 229
Neighbor list builds = 0
Dangerous builds = 0
=== Phase 3: Tension ===
Neighbor list info ...
  update: every = 1 steps, delay = 10 steps, check = yes
  max neighbors/atom: 2000, page size: 100000
  master list distance cutoff = 11.0375
  ghost atom cutoff = 11.0375
  binsize = 5.51875, bins = 4 4 4
  3 neighbor lists, perpetual/occasional/extra = 1 2 0
  (1) pair eam/alloy, perpetual
      attributes: half, newton on
      pair build: half/bin/atomonly/newton/tri
      stencil: half/bin/3d/tri
      bin: standard
  (2) compute cna/atom, occasional
      attributes: full, newton on
      pair build: full/bin/atomonly
      stencil: full/bin/3d
      bin: standard
  (3) compute centro/atom, occasional
      attributes: full, newton on
      pair build: full/bin/atomonly
      stencil: full/bin/3d
      bin: standard
Setting up Verlet run ...
  Unit style    : metal
  Current step  : 0
  Time step     : 0.002
Per MPI rank memory allocation (min/avg/max) = 5.998 | 5.998 | 5.998 Mbytes
   Step          Temp         v_strain       v_stress    v_stress_drop  v_drop_from_peak      Pxx            Pyy            Pzz             Lx             Ly             Lz      
         0   291.37147      2.2691255e-15 -0.3072673      3.8857806e-16  0.3072673     -2702.2986      182.09087      3072.673       20.561708      17.751214      18.788103    
       100   292.31887      0.0002        -0.37246564     0.032599168    0.37246564     986.36972     -2565.8761      3724.6564      20.494587      17.797466      18.791861    
       200   306.35572      0.0004        -0.25079825    -0.059378811    0.25079825    -3408.9723      508.40874      2507.9825      20.567648      17.742508      18.795618    
       300   284.82746      0.0006        -0.28683505    -0.017506508    0.28683505     398.58983     -1531.2428      2868.3505      20.495734      17.790034      18.799376    
       400   302.17208      0.0008        -0.3246409      0.016239476    0.3246409      232.02221     -1326.8909      3246.409       20.509899      17.771645      18.803134    
       500   311.64484      0.001         -0.29705876    -0.0094522207   0.29705876    -3025.0344      2280.2764      2970.5876      20.564436      17.731602      18.806891    
       600   303.08066      0.0012        -0.28913282    -0.014895566    0.28913282     3734.7001     -4408.1481      2891.3282      20.445116      17.821403      18.810649    
       700   299.60829      0.0014        -0.23185611    -0.063150743    0.23185611    -3044.8594      4243.6418      2318.5611      20.552302      17.713876      18.814406    
       800   296.46928      0.0016        -0.18582914    -0.097046856    0.18582914     3981.063      -637.72363      1858.2914      20.45411       17.786367      18.818164    
       900   305.13313      0.0018        -0.24542464    -0.03370622     0.24542464     1509.642       3461.6584      2454.2464      20.519462      17.723979      18.821922    
      1000   300.04051      0.002         -0.30169311     0.023119669    0.30169311     2243.105       3888.592       3016.9311      20.479267      17.747637      18.825679    
      1100   299.89476      0.0022        -0.23440495    -0.030362426    0.23440495     5403.6357      1030.7915      2344.0495      20.434766      17.77694       18.829437    
      1200   300.01479      0.0024        -0.15269587    -0.10226126     0.15269587    -47.007743      6893.3163      1526.9587      20.559396      17.675544      18.833195    
      1300   305.25174      0.0026        -0.19322053    -0.052375158    0.19322053     7067.1078     -1144.6338      1932.2053      20.403334      17.810134      18.836952    
      1400   288.36407      0.0028        -0.08812494    -0.13381915     0.08812494    -352.65497      6113.6964      881.2494       20.527461      17.698933      18.84071     
      1500   283.58961      0.003         -0.011016478   -0.18232338     0.011016478    3588.4119     -1239.3369      110.16478      20.470083      17.762935      18.844467    
      1600   310.85972      0.0032         0.20773767    -0.35139048     0             -1511.2489      1116.0671     -2077.3767      20.527067      17.742601      18.848225    
      1700   289.56579      0.0034         0.1608171     -0.26520259     0.046920568   -1120.5483     -389.25007     -1608.171       20.490513      17.765328      18.851983    
      1800   294.67266      0.0036         0.19171449    -0.25834562     0.016023172    58.065881     -2943.5025     -1917.1449      20.483531      17.776256      18.85574     
      1900   305.421        0.0038         0.23341289    -0.25216026     0             -3445.1615      551.67722     -2334.1289      20.555245      17.720522      18.859498    
      2000   302.18905      0.004          0.38561759    -0.3356339      0              814.46787     -3919.6957     -3856.1759      20.453063      17.804497      18.863256    
      2100   290.04968      0.0042         0.34337124    -0.23560992     0.042246356   -3934.3843      105.38872     -3433.7124      20.546995      17.719238      18.867013    
      2200   296.24222      0.0044         0.4035418     -0.24015672     0              55.455913     -3800.957      -4035.418       20.483617      17.787294      18.870771    
      2300   300.25698      0.0046         0.40563348    -0.182363       0             -3658.1862     -654.30651     -4056.3348      20.532799      17.730707      18.874528    
      2400   292.07248      0.0048         0.49167563    -0.21042509     0             -1280.1059     -1641.0971     -4916.7563      20.496456      17.75506       18.878286    
      2500   319.86705      0.005          0.48728157    -0.15620123     0.0043940549   1406.2138     -2955.6106     -4872.8157      20.474821      17.775481      18.882044    
      2600   305.65454      0.0052         0.38733599    -0.038295811    0.10433964    -3455.3201      4718.3547     -3873.3599      20.543867      17.692702      18.885801    
      2700   295.61343      0.0054         0.42443756    -0.049035337    0.067238066    6319.9411     -3570.7621     -4244.3756      20.371723      17.828673      18.889559    
      2800   288.25463      0.0056         0.2759651      0.10786219     0.21571053    -545.49163      8265.8837     -2759.651       20.554231      17.631447      18.893316    
      2900   306.78842      0.0058         0.2354495      0.14858145     0.25622613     6242.6891      3169.0631     -2354.495       20.428013      17.741109      18.897074    
      3000   297.05826      0.006          0.37547939     0.0075377349   0.11619624     5127.5304      3498.5554     -3754.7939      20.418823      17.747885      18.900832    
      3100   282.62356      0.0062         0.32192402     0.058948379    0.1697516      2448.5364      5376.6625     -3219.2402      20.496812      17.680998      18.904589    
      3200   310.45177      0.0064         0.50404687    -0.11312396     0              4122.6605      280.99152     -5040.4687      20.440398      17.752537      18.908347    
      3300   328.22705      0.0066         0.57744739    -0.16934309     0             -1591.4547      3424.1488     -5774.4739      20.506786      17.710908      18.912105    
      3400   309.98527      0.0068         0.77597696    -0.33944253     0              2842.2117     -4168.4933     -7759.7696      20.430494      17.784014      18.915862    
      3500   299.87274      0.007          0.83744264    -0.3658921      0             -4017.2972      2120.1967     -8374.4264      20.554935      17.679331      18.91962     
      3600   314.35335      0.0072         0.91561427    -0.3912359      0             -426.98847     -4297.1953     -9156.1427      20.458434      17.781841      18.923377    
      3700   282.81686      0.0074         0.89109077    -0.32004708     0.024523497   -1743.423      -2113.775      -8910.9077      20.486734      17.750602      18.927135    
      3800   303.72403      0.0076         1.0274359     -0.38124513     0             -5005.0812     -169.93383     -10274.359      20.551701      17.697769      18.930893    
      3900   310.89384      0.0078         0.88092176    -0.17018376     0.14651413     272.26348     -5114.8424     -8809.2176      20.436884      17.797547      18.93465     
      4000   297.47992      0.008          0.98974142    -0.21757722     0.03769448    -5320.7441      946.74288     -9897.4142      20.527279      17.705666      18.938408    
      4100   291.36203      0.0082         1.0226684     -0.18042976     0.0047674944   1231.1165     -4488.6219     -10226.684      20.440823      17.782609      18.942166    
      4200   306.06155      0.0084         0.99690272    -0.1053785      0.030533174   -2954.2725      955.16689     -9969.0272      20.522239      17.698205      18.945923    
      4300   314.26025      0.0086         0.90381139     0.020349235    0.12362451     673.68534     -772.42816     -9038.1139      20.442393      17.752244      18.949681    
      4400   291.64987      0.0088         1.0738141     -0.11986977     0              2308.5419     -1442.1002     -10738.141      20.441638      17.744233      18.953438    
      4500   306.82906      0.009          0.9380426      0.02596174     0.13577152    -1984.0683      4711.8113     -9380.426       20.51138       17.67517       18.957196    
      4600   294.27742      0.0092         0.85901326     0.099330974    0.21480085     5196.5628     -48.559742     -8590.1326      20.398786      17.754294      18.960954    
      4700   285.57179      0.0094         1.0491055     -0.074959773    0.024708636    116.76021      4294.7173     -10491.055      20.468295      17.692202      18.964711    
      4800   294.8966       0.0096         1.0763368     -0.097300963    0              2066.1089      1878.201      -10763.368      20.469319      17.70262       18.968469    
      4900   314.36106      0.0098         1.2099314     -0.19799462     0              1338.4675     -737.59441     -12099.314      20.438832      17.738422      18.972227    
      5000   286.03023      0.01           1.2459358     -0.20837959     0             -2736.429       2513.5875     -12459.358      20.492546      17.691704      18.975984    
      5100   319.10125      0.0102         1.293759      -0.22909376     0              2656.6044     -3499.9581     -12937.59       20.416267      17.760538      18.979742    
      5200   292.0393       0.0104         1.3202059     -0.22321037     0             -3340.253       2844.7319     -13202.059      20.524412      17.664435      18.983499    
      5300   294.54137      0.0106         1.3772422     -0.23290356     0              1070.9962     -2180.218      -13772.422      20.419998      17.751844      18.987257    
      5400   291.12089      0.0108         1.5022386     -0.31505748     0             -371.06162     -1029.3137     -15022.386      20.44907       17.726315      18.991015    
      5500   288.28959      0.011          1.385073      -0.15318886     0.11716559    -1909.7089      2576.9669     -13850.73       20.509328      17.670402      18.994772    
      5600   300.14496      0.0112         1.4935193     -0.19818452     0.0087193258   3714.298      -2731.9388     -14935.193      20.381798      17.77601       18.99853     
      5700   279.01701      0.0114         1.4091005     -0.077766249    0.093138094   -1741.5763      4776.4742     -14091.005      20.498035      17.650331      19.002287    
      5800   301.87841      0.0116         1.5092132     -0.13459133     0              3638.7484     -346.15537     -15092.132      20.40956       17.73014       19.006045    
      5900   319.71497      0.0118         1.4550649     -0.055929666    0.054148308    950.88133      3551.1823     -14550.649      20.437527      17.698172      19.009803    
      6000   296.75276      0.012          1.5051037     -0.080051679    0.0041095015   2088.193       3366.2263     -15051.037      20.442094      17.681368      19.01356     
      6100   280.33433      0.0122         1.5198284     -0.072169397    0              4441.5842      559.87819     -15198.284      20.423523      17.700138      19.017318    
      6200   304.69004      0.0124         1.4949684     -0.029833234    0.024859912   -713.1624       4074.3626     -14949.684      20.458866      17.675691      19.021076    
      6300   297.75595      0.0126         1.6633284     -0.16958454     0              3194.3669     -1382.1014     -16633.284      20.38426       17.751018      19.024833    
      6400   281.4571       0.0128         1.7820863     -0.26035772     0             -1332.0545      1440.3418     -17820.863      20.4984        17.66117       19.028591    
      6500   306.82109      0.013          1.7419709     -0.18455252     0.040115405    280.17663     -1040.1601     -17419.709      20.443629      17.717137      19.032348    
      6600   299.42125      0.0132         1.8235683     -0.23314502     0             -896.92314     -823.71193     -18235.683      20.435188      17.723562      19.036106    
      6700   300.23414      0.0134         1.9086997     -0.26831648     0             -1077.8792     -245.43075     -19086.997      20.467427      17.688458      19.039864    
      6800   291.10958      0.0136         1.8512015     -0.17661942     0.05749823     182.68499     -1890.11       -18512.015      20.441547      17.716971      19.043621    
      6900   297.70831      0.0138         1.8855324     -0.16790358     0.02316732    -2145.2977      454.54125     -18855.324      20.454407      17.701217      19.047379    
      7000   285.07802      0.014          1.9865952     -0.22081728     0              744.36647     -2511.5811     -19865.952      20.41114       17.731056      19.051137    
      7100   309.14512      0.0142         1.8987739     -0.095101415    0.087821304   -2200.5779     -189.85918     -18987.739      20.471093      17.685727      19.054894    
      7200   311.93494      0.0144         2.0761407     -0.21435099     0             -1226.6362     -1800.4544     -20761.407      20.430691      17.719978      19.058652    
      7300   290.30546      0.0146         2.1358953     -0.22684885     0             -661.44008     -547.31332     -21358.953      20.424885      17.709838      19.062409    
      7400   289.94838      0.0148         2.067768      -0.13015336     0.068127333    374.9588       428.4082      -20677.68       20.440507      17.681421      19.066167    
      7500   307.24683      0.015          1.9957953     -0.032798267    0.14009999     1952.7432      944.14886     -19957.953      20.423316      17.690789      19.069925    
      7600   299.55452      0.0152         2.044729      -0.059615918    0.091166266    1089.6563      2186.765      -20447.29       20.411761      17.69286       19.073682    
      7700   282.30126      0.0154         2.1241716     -0.11751128     0.011723713    2646.0826      922.17048     -21241.716      20.411989      17.684358      19.07744     
      7800   287.78876      0.0156         2.0099618      0.012574478    0.12593344     1262.6589      1767.8727     -20099.618      20.43423       17.671154      19.081198    
      7900   309.78221      0.0158         2.1845372     -0.13210038     0              562.92662      983.49726     -21845.372      20.421415      17.690489      19.084955    
      8000   282.48681      0.016          2.2792417     -0.19754025     0              1371.0442     -144.83002     -22792.417      20.395096      17.708796      19.088713    
      8100   299.71503      0.0162         2.3153546     -0.19199506     0             -1414.9852      610.72092     -23153.546      20.460831      17.661978      19.09247     
      8200   308.03915      0.0164         2.289276      -0.14460294     0.026078591    1134.0674     -2380.8188     -22892.76       20.399161      17.723787      19.096228    
      8300   307.96296      0.0166         2.5191365     -0.33613934     0             -2155.4343     -560.26043     -25191.365      20.44406       17.689632      19.099986    
      8400   299.16628      0.0168         2.3291573     -0.12002117     0.18997923    -780.70225     -345.14515     -23291.573      20.440186      17.677153      19.103743    
      8500   315.98763      0.017          2.4626006     -0.206784       0.056535874   -397.01846     -735.62891     -24626.006      20.424243      17.701691      19.107501    
      8600   301.44887      0.0172         2.4950161     -0.19417078     0.024120378   -570.28979      140.57627     -24950.161      20.417313      17.69504       19.111258    
      8700   303.39458      0.0174         2.5370516     -0.19491824     0              841.82462     -1847.3513     -25370.516      20.413811      17.693706      19.115016    
      8800   296.89333      0.0176         2.4005902     -0.019394027    0.13646138    -1390.6728      946.87888     -24005.902      20.471772      17.648778      19.118774    
      8900   306.9426       0.0178         2.5721853     -0.15222431     0              2023.0439     -2097.7677     -25721.853      20.351094      17.748682      19.122531    
      9000   306.01397      0.018          2.5418817     -0.095656702    0.030303614   -1776.6362      1803.2245     -25418.817      20.454314      17.64449       19.126289    
      9100   294.26278      0.0182         2.5976615     -0.12320582     0              1912.8857      274.12597     -25976.615      20.416736      17.668241      19.130047    
      9200   295.23612      0.0184         2.4789703      0.014454834    0.11869122     2431.5492      2082.7419     -24789.703      20.381929      17.690865      19.133804    
      9300   297.19178      0.0186         2.5971752     -0.095946214    0.00048630546  1455.2957      2409.4554     -25971.752      20.399188      17.668294      19.137562    
      9400   307.22519      0.0188         2.5931749     -0.065544174    0.0044865814   1310.2075      1382.2715     -25931.749      20.432796      17.655957      19.141319    
      9500   291.4658       0.019          2.6751377     -0.12625325     0              922.27919      600.68842     -26751.377      20.395717      17.687336      19.145077    
      9600   305.82406      0.0192         2.8635792     -0.27783848     0             -673.57137     -508.88977     -28635.792      20.397875      17.692189      19.148835    
      9700   302.24371      0.0194         2.7490728     -0.14212991     0.11450645    -501.35543     -1348.1003     -27490.728      20.444236      17.666724      19.152592    
      9800   292.99322      0.0196         2.8099266     -0.16205013     0.05365258    -1094.7837      424.55926     -28099.266      20.431331      17.662815      19.15635     
      9900   310.3482       0.0198         2.9263233     -0.24303302     0             -902.29376     -2569.9587     -29263.233      20.390216      17.707052      19.160108    
     10000   300.19085      0.02           3.0382524     -0.305325       0             -1496.4521     -2188.9796     -30382.524      20.430288      17.677399      19.163865    
     10100   316.46814      0.0202         2.990739      -0.21850387     0.047513376   -3677.9932     -1003.5467     -29907.39       20.456197      17.662342      19.167623    
     10200   298.76947      0.0204         3.0790971     -0.24684927     0              156.74277     -3145.8921     -30790.971      20.361062      17.726138      19.17138     
     10300   304.04985      0.0206         2.9789255     -0.10850264     0.1001716     -1461.6543      651.97021     -29789.255      20.441158      17.649728      19.175138    
     10400   291.41968      0.0208         2.8502829      0.045850729    0.22881417     1959.5016      252.51951     -28502.829      20.401768      17.664798      19.178896    
     10500   310.07117      0.021          2.8446895      0.068399325    0.23440758     416.16682      2645.9044     -28446.895      20.394614      17.652414      19.182653    
     10600   296.47006      0.0212         2.9366707     -0.016272693    0.14242642     4039.9119      1487.7718     -29366.707      20.353371      17.674098      19.186411    
     10700   311.47025      0.0214         2.9583398     -0.017015081    0.12075733     1688.2176      3329.373      -29583.398      20.410561      17.634296      19.190169    
     10800   312.51164      0.0216         2.9409174      0.013506365    0.1381797      1649.1174      2615.8042     -29409.174      20.390211      17.641787      19.193926    
     10900   295.4577       0.0218         3.0071379     -0.044632701    0.071959175    3162.3435      565.61526     -30071.379      20.353726      17.677535      19.197684    
     11000   311.28334      0.022          3.1416225     -0.16878024     0              168.50419      2617.5566     -31416.225      20.424926      17.630543      19.201441    
     11100   299.57556      0.0222         3.1925222     -0.19950162     0              1215.2376     -99.870122     -31925.222      20.379839      17.672166      19.205199    
     11200   308.02075      0.0224         3.2253864     -0.21773688     0             -316.2438      -244.35428     -32253.864      20.389146      17.665957      19.208957    
     11300   303.75527      0.0226         3.2616962     -0.22576965     0              383.74704     -1021.7493     -32616.962      20.383606      17.681209      19.212714    
     11400   307.55888      0.0228         3.2930478     -0.21284479     0             -3103.9259      43.33756      -32930.478      20.44911       17.633063      19.216472    
     11500   290.38676      0.023          3.4310506     -0.29221149     0              134.81275     -4101.821      -34310.506      20.341081      17.72682       19.220229    
     11600   311.60718      0.0232         3.4579634     -0.26699499     0             -4669.3747     -640.6517      -34579.634      20.443243      17.647066      19.223987    
     11700   298.17267      0.0234         3.3849711     -0.15133956     0.072992301   -2260.129      -3171.4598     -33849.711      20.409291      17.669544      19.227745    
     11800   297.80469      0.0236         3.5848614     -0.28683544     0             -2746.3298     -3183.4854     -35848.614      20.398987      17.675891      19.231502    
     11900   312.41486      0.0238         3.574019      -0.21930493     0.010842404   -2451.9417     -1971.0665     -35740.19       20.391791      17.681976      19.23526     
     12000   308.52721      0.024          3.574668      -0.17664943     0.01019335    -319.48621     -976.72256     -35746.68       20.402875      17.646531      19.239018    
     12100   298.20113      0.0242         3.4651341     -0.039854342    0.11972724     348.1671       1929.7351     -34651.341      20.398207      17.625314      19.242775    
     12200   309.49576      0.0244         3.3785753      0.062023404    0.20628609     3105.7469     -418.95484     -33785.753      20.32541       17.689487      19.246533    
     12300   294.92013      0.0246         3.4893976     -0.026028783    0.095463757    133.86732      2784.88       -34893.976      20.401036      17.615501      19.25029     
     12400   286.92934      0.0248         3.4669651      0.013795498    0.11789631     2028.0644      2155.9596     -34669.651      20.380747      17.630019      19.254048    
     12500   311.5858       0.025          3.6420076     -0.14015137     0              2050.9825      417.25979     -36420.076      20.330557      17.67866       19.257806    
     12600   299.75347      0.0252         3.59996       -0.083904073    0.042047641    171.6448       1561.9786     -35999.6        20.388631      17.631576      19.261563    
     12700   296.39217      0.0254         3.6304447     -0.089841436    0.011562916    1229.0534      621.42896     -36304.447      20.380038      17.636612      19.265321    
     12800   282.58692      0.0256         3.6462916     -0.099545248    0             -177.63119     -493.33362     -36462.916      20.366986      17.660152      19.269079    
     12900   307.68628      0.0258         3.8142791     -0.24350678     0             -1364.1712     -1933.8163     -38142.791      20.370704      17.668644      19.272836    
     13000   296.99004      0.026          3.8085149     -0.21435791     0.0057641875  -1608.3576     -2090.8066     -38085.149      20.401236      17.651037      19.276594    
     13100   302.28168      0.0262         3.912893      -0.27396009     0             -2208.9697     -1040.9227     -39128.93       20.389507      17.643596      19.280351    
     13200   301.67228      0.0264         3.9282364     -0.23433739     0              392.02065     -2564.2224     -39282.364      20.326598      17.697233      19.284109    
     13300   302.16863      0.0266         3.9232923     -0.18600388     0.0049440394  -2592.7763      1016.1795     -39232.923      20.422084      17.616484      19.287867    
     13400   298.30699      0.0268         4.0500565     -0.25445885     0              1106.9435     -3016.4786     -40500.565      20.355167      17.671292      19.291624    
     13500   300.10014      0.027          3.951758      -0.12518533     0.098298491   -883.78723      1136.3562     -39517.58       20.377847      17.632693      19.295382    
     13600   305.25997      0.0272         3.9037416     -0.046790787    0.14631487     1212.2769     -442.3726      -39037.416      20.34773       17.659778      19.29914     
     13700   299.66925      0.0274         4.1144894     -0.20913409     0              656.92554      978.09751     -41144.894      20.383429      17.62048       19.302897    
     13800   299.87837      0.0276         4.0229144     -0.079896856    0.091574944    1286.5953      485.06906     -40229.144      20.340184      17.65251       19.306655    
     13900   312.71569      0.0278         4.0861118     -0.11591099     0.028377544    1413.6925     -775.12876     -40861.118      20.342533      17.6614        19.310412    
     14000   308.92026      0.028          4.10414       -0.10437667     0.010349356   -1516.5178      1340.7032     -41041.4        20.400121      17.610957      19.31417     
     14100   288.87739      0.0282         4.1990502     -0.17067113     0              1609.635      -655.82228     -41990.502      20.326155      17.66384       19.317928    
     14200   300.7625       0.0284         4.2163302     -0.15914176     0             -1605.2057      1504.2485     -42163.302      20.379631      17.631734      19.321685    
     14300   330.65151      0.0286         4.2734979     -0.18128889     0              1134.215      -1148.6485     -42734.979      20.354079      17.656319      19.325443    
     14400   303.61253      0.0288         4.2916001     -0.17523675     0             -608.51113      1906.7946     -42916.001      20.3737        17.620495      19.3292      
     14500   292.09471      0.029          4.330279      -0.17606357     0              922.85327      180.12535     -43302.79       20.315159      17.663832      19.332958    
     14600   310.96421      0.0292         4.3784383     -0.1767532      0              340.5867       159.86151     -43784.383      20.361804      17.634506      19.336716    
     14700   308.37176      0.0294         4.3845283     -0.15583929     0             -1204.8928      569.86839     -43845.283      20.382591      17.613258      19.340473    
     14800   314.32363      0.0296         4.5437121     -0.26294335     0             -276.07309     -1848.3709     -45437.121      20.31637       17.676691      19.344231    
     14900   303.28895      0.0298         4.5971427     -0.2652708      0             -2078.1533      466.20243     -45971.427      20.376667      17.639929      19.347989    
     15000   292.77374      0.03           4.5444781     -0.16857244     0.052664549   -730.68847     -827.59633     -45444.781      20.378547      17.624693      19.351746    
     15100   291.89474      0.0302         4.6039998     -0.18759915     0             -288.40083     -1055.2673     -46039.998      20.346731      17.651443      19.355504    
     15200   279.73383      0.0304         4.5869213     -0.13346149     0.017078556   -162.71169     -544.45655     -45869.213      20.344188      17.64442       19.359261    
     15300   295.44785      0.0306         4.7311533     -0.231928       0             -216.84202     -1515.0925     -47311.533      20.350593      17.634481      19.363019    
     15400   308.36899      0.0308         4.6272395     -0.094450262    0.1039138     -1938.3281      602.04168     -46272.395      20.376763      17.613293      19.366777    
     15500   298.02127      0.031          4.7069647     -0.13650688     0.024188608    1365.3978     -2614.6885     -47069.647      20.301071      17.677579      19.370534    
     15600   284.50616      0.0312         4.6637436     -0.064755292    0.067409668   -1600.0339      2365.5581     -46637.436      20.395183      17.57861       19.374292    
     15700   310.36299      0.0314         4.508778       0.10263533     0.22237532     841.66665      1088.8837     -45087.78       20.32821       17.630942      19.37805     
     15800   296.98705      0.0316         4.7118676     -0.083638717    0.019285732    3690.552       791.71907     -47118.676      20.276695      17.663737      19.381807    
     15900   295.87358      0.0318         4.6767621     -0.040571303    0.054391203    126.70058      4409.3528     -46767.621      20.378647      17.565129      19.385565    
     16000   310.23841      0.032          4.7288558     -0.074227209    0.0022975328   4066.3319     -302.60265     -47288.558      20.292117      17.643758      19.389322    
     16100   306.03161      0.0322         4.7832157     -0.11066557     0             -180.34498      4119.4338     -47832.157      20.35023       17.598657      19.39308     
     16200   289.22165      0.0324         4.7441852     -0.055908662    0.039030509    4397.1565     -1320.479      -47441.852      20.272432      17.653221      19.396838    
     16300   298.26781      0.0326         4.8334245     -0.13492078     0             -717.73384      1993.6554     -48334.245      20.382533      17.581042      19.400595    
     16400   274.62603      0.0328         4.8894679     -0.16474144     0              1014.7087     -455.6761      -48894.679      20.326013      17.640096      19.404353    
     16500   295.38866      0.033          5.0440365     -0.2856028      0             -318.0032      -1256.3166     -50440.365      20.326681      17.638365      19.408111    
     16600   293.24431      0.0332         5.1433331     -0.33694044     0             -2566.163       261.02431     -51433.331      20.369707      17.605272      19.411868    
     16700   311.42634      0.0334         4.9744101     -0.12145429     0.16892294    -417.81784     -3216.7231     -49744.101      20.318082      17.655116      19.415626    
     16800   307.05764      0.0336         5.1928259     -0.29177419     0             -4087.8516     -666.31299     -51928.259      20.373561      17.609209      19.419383    
     16900   291.05464      0.0338         5.1217847     -0.1762308      0.07104113    -890.4652      -3496.6977     -51217.847      20.320037      17.649426      19.423141    
     17000   298.64896      0.034          5.0688267     -0.089275664    0.12399917    -2914.5124      1757.3319     -50688.267      20.382936      17.583207      19.426899    
     17100   284.17236      0.0342         5.0637939     -0.056185045    0.12903198     2690.4399      268.41821     -50637.939      20.286176      17.639578      19.430656    
     17200   307.06737      0.0344         5.1062365     -0.062422556    0.086589332    2972.335       1576.6973     -51062.365      20.297242      17.605854      19.434414    
     17300   305.62001      0.0346         5.0999285     -0.029464121    0.09289736     2393.6451      5306.2927     -50999.285      20.351818      17.554051      19.438171    
     17400   299.74347      0.0348         5.0655576      0.022515779    0.1272683      4781.0796      1831.1225     -50655.576      20.265868      17.628126      19.441929    
     17500   302.92408      0.035          5.125759      -0.029513372    0.067066898    1544.0171      3159.9408     -51257.59       20.337539      17.570728      19.445687    
     17600   305.27643      0.0352         5.1228583     -0.028660138    0.069967613    3232.5091      887.30011     -51228.583      20.304498      17.613228      19.449444    
     17700   292.31902      0.0354         5.2115533     -0.093640831    0             -779.68437      2285.6872     -52115.533      20.348366      17.585632      19.453202    
     17800   275.32132      0.0356         5.4295858     -0.28799734     0              1319.2079     -384.1684      -54295.858      20.297653      17.625294      19.45696     
     17900   284.80452      0.0358         5.4807274     -0.30324474     0             -1003.3314     -334.24735     -54807.274      20.331874      17.60066       19.460717    
     18000   308.85514      0.036          5.4433856     -0.22844703     0.037341823   -1257.2586     -1676.8349     -54433.856      20.333855      17.616348      19.464475    
     18100   302.92679      0.0362         5.5308583     -0.26921325     0             -2619.4555     -3138.3191     -55308.583      20.349504      17.62888       19.468232    
     18200   294.52548      0.0364         5.7041788     -0.38273955     0             -3102.1645     -4036.6005     -57041.788      20.328463      17.640998      19.47199     
     18300   292.59548      0.0366         5.6146015     -0.24169494     0.089577313   -3120.9055     -3441.4157     -56146.015      20.351016      17.619533      19.475748    
     18400   296.68123      0.0368         5.6389253     -0.20868201     0.065253464   -4249.5716     -1973.7096     -56389.253      20.34888       17.618171      19.479505    
     18500   302.12241      0.037          5.6396573     -0.15802417     0.064521473    1309.8319     -4006.146      -56396.573      20.277749      17.662602      19.483263    
     18600   310.67054      0.0372         5.553926      -0.02918608     0.15025279    -2247.8514      4094.5999     -55539.26       20.378808      17.54672       19.487021    
     18700   321.49334      0.0374         5.3296706      0.20688109     0.37450823     4549.1262      364.4391      -53296.706      20.263543      17.624023      19.490778    
     18800   294.15876      0.0376         5.4221358      0.11367085     0.28204299     3672.7555      5471.1461     -54221.358      20.302448      17.564031      19.494536    
     18900   297.90621      0.0378         5.4082658      0.12029475     0.29591305     3759.3076      4639.9292     -54082.658      20.300012      17.564125      19.498293    
     19000   318.32429      0.038          5.5047311      0.029963984    0.19944774     3081.291       2464.4213     -55047.311      20.298995      17.582241      19.502051    
     19100   299.25711      0.0382         5.5844225     -0.044371027    0.11975631     1287.273       3400.6928     -55844.225      20.313651      17.569617      19.505809    
     19200   292.73201      0.0384         5.6364974     -0.10321403     0.067681446    2245.777       1026.776      -56364.974      20.28757       17.602169      19.509566    
     19300   301.07133      0.0386         5.8481101     -0.29147593     0              285.44408      1403.6037     -58481.101      20.32498       17.584713      19.513324    
     19400   316.6412       0.0388         5.8964676     -0.31407915     0             -1769.9188     -397.83506     -58964.676      20.330387      17.595237      19.517082    
     19500   283.5487       0.039          5.8982692     -0.29001961     0             -778.97644     -2432.5033     -58982.692      20.297756      17.627384      19.520839    
     19600   315.2088       0.0392         6.081239      -0.42025807     0             -5409.9174     -2553.3991     -60812.39       20.383358      17.576416      19.524597    
     19700   305.47535      0.0394         6.0355974     -0.30402383     0.045641553   -2747.4916     -5931.773      -60355.974      20.310164      17.653281      19.528354    
     19800   297.22301      0.0396         6.1692647     -0.36297822     0             -6167.3829     -3716.7052     -61692.647      20.34771       17.61876       19.532112    
     19900   293.27142      0.0398         6.2293135     -0.34092227     0             -2700.9618     -5161.6884     -62293.135      20.318279      17.637166      19.53587     
     20000   296.96156      0.04           5.9206114      0.0093678354   0.30870206    -1940.0427     -1589.818      -59206.114      20.339608      17.588095      19.539627    
     20100   298.6388       0.0402         6.027909      -0.053581054    0.20140453    -1569.7239     -339.60404     -60279.09       20.306648      17.599668      19.543385    
     20200   291.9901       0.0404         5.9492547      0.056348909    0.28005875     1704.1978     -205.69158     -59492.547      20.275226      17.6084        19.547142    
     20300   305.82242      0.0406         6.0167965      0.0056757752   0.21251698    -1008.7728      1198.9515     -60167.965      20.324477      17.571202      19.5509      
     20400   273.8865       0.0408         5.9778324      0.052776377    0.25148109     2169.5008      782.67825     -59778.324      20.276528      17.598955      19.554658    
     20500   313.4813       0.041          6.075651      -0.027304068    0.15366247     124.82884      1044.6882     -60756.51       20.290873      17.584907      19.558415    
     20600   311.20797      0.0412         5.9979936      0.042028823    0.23131989    -61.184959      1406.1944     -59979.936      20.307665      17.582176      19.562173    
     20700   300.40798      0.0414         6.1055239     -0.058508848    0.12378957     1657.1759     -1049.8831     -61055.239      20.270332      17.60476       19.565931    
     20800   297.15211      0.0416         6.0473283     -0.01250685     0.1819852     -1241.3421      1739.4833     -60473.283      20.32734       17.558498      19.569688    
     20900   322.3787       0.0418         6.1861261     -0.1556234      0.043187392    169.76463     -2469.2003     -61861.261      20.273812      17.626911      19.573446    
     21000   289.17661      0.042          6.1827575     -0.12604015     0.046556046   -2435.4811      1493.3184     -61827.575      20.332108      17.562852      19.577203    
     21100   288.16848      0.0422         6.1443393     -0.07597893     0.084974232    1214.059      -2785.023      -61443.393      20.255269      17.6293        19.580961    
     21200   309.34515      0.0424         6.2729415     -0.17221247     0             -3472.4268     -901.57951     -62729.415      20.34602       17.564917      19.584719    
     21300   307.74041      0.0426         6.3931746     -0.25480779     0             -707.98748     -3131.6912     -63931.746      20.291499      17.616138      19.588476    
     21400   291.02078      0.0428         6.4677707     -0.28041008     0             -1316.1999     -2114.9821     -64677.707      20.291262      17.60322       19.592234    
     21500   303.80312      0.043          6.3832223     -0.1651045      0.084548456   -2727.8482      475.53156     -63832.223      20.322617      17.574025      19.595992    
     21600   290.05714      0.0432         6.2496674     -0.0063822902   0.21810328     3163.8415     -1453.4205     -62496.674      20.254896      17.607091      19.599749    
     21700   294.62968      0.0434         6.2619465     -0.0030190742   0.20582424    -1210.8065      4388.244      -62619.465      20.308091      17.540947      19.603507    
     21800   304.60591      0.0436         6.2961211     -0.012314404    0.17164963     4152.8808      534.52387     -62961.211      20.236317      17.590822      19.607264    
     21900   314.63813      0.0438         6.3401297     -0.040922638    0.12764104     2437.7232      2498.1309     -63401.297      20.277826      17.555184      19.611022    
     22000   281.50832      0.044          6.2712224      0.036831182    0.19654837    -68.482481      5028.4166     -62712.224      20.304795      17.531048      19.61478     
     22100   316.59418      0.0442         6.4831712     -0.14123443     0              4534.0221     -1976.9376     -64831.712      20.231011      17.612753      19.618537    
     22200   305.09188      0.0444         6.5594666     -0.18887739     0             -1693.8149      2849.3095     -65594.666      20.333772      17.529981      19.622295    
     22300   303.61507      0.0446         6.6237468     -0.2301003      0              1251.6056     -2642.9544     -66237.468      20.253008      17.606497      19.626053    
     22400   308.68805      0.0448         6.5925001     -0.18638073     0.031246633   -1290.2555     -666.22563     -65925.001      20.30166       17.57385       19.62981     
     22500   307.11125      0.045          6.5951772     -0.16786229     0.028569577   -1604.5945     -71.407699     -65951.772      20.307258      17.565955      19.633568    
     22600   296.95955      0.0452         6.6972529     -0.22517946     0              462.95695     -2512.5923     -66972.529      20.261845      17.5992        19.637325    
     22700   305.27297      0.0454         6.875168      -0.34177239     0             -2803.2621      1692.0198     -68751.68       20.330831      17.539296      19.641083    
     22800   323.98101      0.0456         6.6632767     -0.093165579    0.21189124     2146.519      -2851.0482     -66632.767      20.23523       17.620398      19.644841    
     22900   300.31166      0.0458         6.6413263     -0.041095523    0.23384163    -2126.8984      3261.5265     -66413.263      20.335837      17.511705      19.648598    
     23000   290.08155      0.046          6.6808851     -0.039687985    0.1942829      3403.262      -148.78428     -66808.851      20.222049      17.599645      19.652356    
     23100   327.15444      0.0462         6.7748443     -0.1044799      0.10032366     1123.1627      1038.5206     -67748.443      20.273471      17.566704      19.656113    
     23200   290.55184      0.0464         6.617767       0.058427414    0.25740094     138.00138      3642.0712     -66177.67       20.321078      17.510587      19.659871    
     23300   292.35469      0.0466         6.7208099     -0.034909114    0.15435811     5050.3731     -3385.4957     -67208.099      20.200414      17.620215      19.663629    
     23400   302.85462      0.0468         6.6921861      0.0036832235   0.18298184    -5448.0275      4392.2766     -66921.861      20.362057      17.495925      19.667386    
     23500   320.72328      0.047          6.9431731     -0.21250417     0              3087.0056     -6202.2889     -69431.731      20.206351      17.654872      19.671144    
     23600   303.39005      0.0472         7.0203479     -0.25736946     0             -4610.1677      1406.3238     -70203.479      20.341556      17.522179      19.674902    
     23700   305.892        0.0474         7.0708009     -0.28825915     0              1223.2941     -3065.077      -70708.009      20.240288      17.605789      19.678659    
     23800   323.59523      0.0476         7.0389355     -0.21882788     0.031865387   -1420.0629     -1463.2555     -70389.355      20.282558      17.578895      19.682417    
     23900   308.30384      0.0478         7.0585431     -0.19671379     0.012257807   -1379.0793      1765.7112     -70585.431      20.311432      17.523341      19.686174    
     24000   296.17985      0.048          6.9376849     -0.050175609    0.13311601     3428.181      -779.19854     -69376.849      20.223848      17.58775       19.689932    
     24100   308.88411      0.0482         6.8847716      0.013730412    0.1860293     -334.22469      2384.0281     -68847.716      20.284853      17.539921      19.69369     
     24200   303.88315      0.0484         7.0792242     -0.13457645     0              2596.9863     -677.07029     -70792.242      20.236773      17.564342      19.697447    
     24300   311.69192      0.0486         7.0632227     -0.084333737    0.01600143    -1320.2624      2964.0259     -70632.227      20.300123      17.517935      19.701205    
     24400   302.3922       0.0488         6.9348734      0.068284375    0.14435082     2568.0956     -258.03793     -69348.734      20.211345      17.586763      19.704963    
     24500   277.19162      0.049          7.1646506     -0.13934511     0              64.04234       734.18625     -71646.506      20.271168      17.536804      19.70872     
     24600   291.66905      0.0492         7.2889306     -0.23676687     0             -2100.2483     -379.73202     -72889.306      20.30795       17.53337       19.712478    
     24700   303.02359      0.0494         7.2411588     -0.17195923     0.047771846   -647.26021     -3970.4525     -72411.588      20.237621      17.607619      19.716235    
     24800   295.81306      0.0496         7.2861159     -0.19219835     0.002814686   -5260.3531     -535.24884     -72861.159      20.328554      17.532159      19.719993    
     24900   281.31734      0.0498         7.3164981     -0.19678503     0              316.31744     -5620.6444     -73164.981      20.23111       17.607484      19.723751    
     25000   296.42328      0.05           7.2283271     -0.079549767    0.088171049   -4804.0845     -378.67161     -72283.271      20.327661      17.532009      19.727508    
     25100   290.49733      0.0502         7.3484926     -0.15334318     0              132.49759     -3640.5328     -73484.926      20.235365      17.597543      19.731266    
     25200   302.4704       0.0504         7.4353858     -0.20462022     0             -2739.0167     -968.40039     -74353.858      20.290825      17.541913      19.735024    
     25300   313.16281      0.0506         7.2304104      0.01707388     0.20497533    -1097.002       553.57765     -72304.104      20.279474      17.551365      19.738781    
     25400   306.19789      0.0508         7.4221975     -0.12598075     0.013188285    2589.5917     -1248.6092     -74221.975      20.230166      17.565397      19.742539    
     25500   295.83042      0.051          7.2561238      0.049240223    0.17926194    -2.8112011      3789.9187     -72561.238      20.272888      17.510721      19.746296    
     25600   307.36486      0.0512         7.237549       0.062676912    0.19783679     4129.1528      1480.9779     -72375.49       20.228569      17.551401      19.750054    
     25700   298.56565      0.0514         7.1843703      0.11017678     0.25101551     1744.8756      3389.8748     -71843.703      20.246375      17.52221       19.753812    
     25800   296.21813      0.0516         7.382529      -0.078340625    0.052856796    2464.1329      1149.5066     -73825.29       20.217945      17.551373      19.757569    
     25900   298.89305      0.0518         7.4538025     -0.13588374     0              250.52382      1806.2794     -74538.025      20.279893      17.501146      19.761327    
     26000   300.58706      0.052          7.4154246     -0.078796102    0.038377883   -782.02504     -674.36209     -74154.246      20.264502      17.545705      19.765084    
     26100   305.07597      0.0522         7.66351       -0.29537972     0             -934.33553     -3981.8152     -76635.1        20.227535      17.593259      19.768842    
     26200   286.82651      0.0524         7.7283207     -0.33089689     0             -4574.88       -148.24322     -77283.207      20.319117      17.509177      19.7726      
     26300   291.53863      0.0526         7.6356886     -0.19773701     0.092632056   -532.70481     -3417.7968     -76356.886      20.242725      17.576036      19.776357    
     26400   291.73373      0.0528         7.5082417     -0.061685708    0.22007894    -2338.0084     -625.79426     -75082.417      20.252991      17.558726      19.780115    
     26500   269.09443      0.053          7.7453529     -0.24987399     0             -496.91132     -1440.8183     -77453.529      20.257511      17.538955      19.783873    
     26600   293.05906      0.0532         7.7804317     -0.23066448     0             -219.2998      -1753.4014     -77804.317      20.24154       17.55692       19.78763     
     26700   285.91664      0.0534         7.4813015      0.098158833    0.29913019    -2215.2935      2622.2395     -74813.015      20.2751        17.514416      19.791388    
     26800   315.70756      0.0536         7.6940683     -0.083454071    0.086363349    3298.0542     -2859.9867     -76940.683      20.192194      17.580619      19.795145    
     26900   292.92952      0.0538         7.6852324     -0.051475159    0.095199273    62.943768      3502.7928     -76852.324      20.269531      17.48832       19.798903    
     27000   306.95956      0.054          7.6040727      0.048549381    0.17635901     2146.4155      908.35159     -76040.727      20.23331       17.532431      19.802661    
     27100   306.26554      0.0542         7.6988045     -0.042652964    0.08162722     2725.7046      622.62123     -76988.045      20.198513      17.554813      19.806418    
     27200   280.72017      0.0544         7.657786      -0.0086879874   0.12264566    -461.78715      4446.8092     -76577.86       20.293753      17.464324      19.810176    
     27300   310.2303       0.0546         7.7938487     -0.12893469     0              3867.396      -2374.271      -77938.487      20.195393      17.563427      19.813934    
     27400   297.42088      0.0548         7.7224993     -0.036159496    0.071349438   -2193.3893      3343.3744     -77224.993      20.285569      17.497511      19.817691    
     27500   301.52368      0.055          7.9056555     -0.20328544     0              1817.6121     -2275.3223     -79056.555      20.205137      17.563017      19.821449    
     27600   304.04228      0.0552         7.9913588     -0.26789607     0             -3027.3351      290.06128     -79913.588      20.292053      17.497182      19.825206    
     27700   297.49809      0.0554         7.8415556     -0.082067421    0.14980324    -1384.745      -1868.9801     -78415.556      20.237898      17.550406      19.828964    
     27800   295.27099      0.0556         7.8188248     -0.046860947    0.17253407    -1228.543      -3236.1559     -78188.248      20.237709      17.561386      19.832722    
     27900   281.17073      0.0558         7.916609      -0.1215075      0.074749853   -3719.1169      155.29906     -79166.09       20.297303      17.495843      19.836479    
     28000   307.65812      0.056          7.938397      -0.10986311     0.052961812    293.88758     -4509.1997     -79383.97       20.208054      17.58035       19.840237    
     28100   302.14933      0.0562         8.0227189     -0.1617935      0             -2894.2039      168.96349     -80227.189      20.272394      17.521207      19.843995    
     28200   300.09071      0.0564         7.9443891     -0.054803453    0.07832974     487.12287     -2851.4429     -79443.891      20.220177      17.550503      19.847752    
     28300   278.24563      0.0566         7.935057      -0.031350493    0.087661874   -1244.7653      2980.6906     -79350.57       20.280023      17.470035      19.85151     
     28400   311.84947      0.0568         7.8562174      0.060860881    0.16650143     3917.0671     -581.57177     -78562.174      20.170705      17.554516      19.855267    
     28500   322.47044      0.057          7.9645563     -0.041587881    0.058162594    43.195472      2936.7349     -79645.563      20.247683      17.490094      19.859025    
     28600   312.85925      0.0572         8.0717953     -0.14078324     0              1619.1903      3173.7811     -80717.953      20.238533      17.489514      19.862783    
     28700   294.69503      0.0574         7.8777413      0.056889325    0.194054       3352.8651      1558.4986     -78777.413      20.189459      17.520818      19.86654     
     28800   316.45813      0.0576         7.906495       0.036902606    0.16530025     1443.5443      2630.4128     -79064.95       20.215275      17.511461      19.870298    
     28900   300.80697      0.0578         7.8782545      0.061307655    0.19354075     1581.1681      235.05279     -78782.545      20.227845      17.509783      19.874055    
     29000   299.80873      0.058          8.0509808     -0.10016026     0.020814456   -546.66001      273.67881     -80509.808      20.233948      17.510538      19.877813    
     29100   294.32177      0.0582         8.0847657     -0.12774045     0             -1331.7167     -968.68088     -80847.657      20.218011      17.533522      19.881571    
     29200   299.34625      0.0584         8.1344233     -0.15839466     0             -2910.2891     -2824.0149     -81344.233      20.264733      17.524157      19.885328    
     29300   283.12816      0.0586         8.3074334     -0.29416708     0             -4054.5762     -3719.7058     -83074.334      20.270332      17.528045      19.889086    
     29400   292.3802       0.0588         8.3530357     -0.29008756     0             -4074.0082     -4056.3976     -83530.357      20.249619      17.545693      19.892844    
     29500   291.38966      0.059          8.3263358     -0.22720968     0.026699935   -1992.1706     -4060.53       -83263.358      20.21876       17.559726      19.896601    
     29600   303.84115      0.0592         7.9885464      0.10225476     0.36448925    -2910.5374      369.31236     -79885.464      20.276541      17.488902      19.900359    
     29700   306.46244      0.0594         8.3044166     -0.17094787     0.048619099    876.05085     -751.75885     -83044.166      20.211006      17.534634      19.904116    
     29800   302.39999      0.0596         8.3282473     -0.15260336     0.024788375    1706.0408      2050.0407     -83282.473      20.196919      17.511604      19.907874    
     29900   311.35243      0.0598         8.0701921      0.12464564     0.28284362     3188.3782      2634.7207     -80701.921      20.196322      17.500777      19.911632    
     30000   312.47476      0.06           8.0927532      0.10626174     0.26028248     1826.3246      4325.7811     -80927.532      20.249475      17.466003      19.915389    
     30100   287.43225      0.0602         8.2714272     -0.05374608     0.081608516    4575.8137      1853.8185     -82714.272      20.1604        17.52833       19.919147    
     30200   310.93482      0.0604         8.2384611     -0.010376182    0.11457464     1314.1031      3267.68       -82384.611      20.224108      17.478502      19.922905    
     30300   302.08433      0.0606         8.4566266     -0.21362242     0              1930.6211     -38.887733     -84566.266      20.194874      17.531476      19.926662    
     30400   288.9676       0.0608         8.4859693     -0.22967176     0             -1189.7913      1640.8738     -84859.693      20.239076      17.488464      19.93042     
     30500   303.05814      0.061          8.4154387     -0.15023086     0.070530606   -173.29129     -2586.6996     -84154.387      20.187308      17.55104       19.934177    
     30600   300.48         0.0612         8.5079955     -0.1908427      0             -1747.9932     -1156.4095     -85079.955      20.238082      17.514547      19.937935    
     30700   286.03719      0.0614         8.4866998     -0.15131875     0.021295631   -1876.6459     -1381.6484     -84866.998      20.233857      17.514553      19.941693    
     30800   296.33766      0.0616         8.6025074     -0.23970034     0             -635.17891     -1772.0372     -86025.074      20.193625      17.541475      19.94545     
     30900   303.52728      0.0618         8.5438046     -0.13363627     0.058702809   -1310.1426      276.25697     -85438.046      20.22303       17.505272      19.949208    
     31000   305.79027      0.062          8.5779546     -0.11926612     0.024552818    1279.8118     -1147.3073     -85779.546      20.188344      17.523277      19.952966    
     31100   293.80911      0.0622         8.5502936     -0.063718477    0.052213824   -705.21877      3539.2693     -85502.936      20.238035      17.464416      19.956723    
     31200   316.14162      0.0624         8.6011911     -0.078342939    0.0013163621   4067.4783     -282.53007     -86011.911      20.146086      17.544492      19.960481    
     31300   298.23509      0.0626         8.5711918     -0.03688716     0.031315622    1768.1909      3362.9182     -85711.918      20.206852      17.477689      19.964238    
     31400   292.40729      0.0628         8.6488189     -0.098229333    0              2414.6115      2735.5817     -86488.189      20.221555      17.469915      19.967996    
     31500   293.72725      0.063          8.5947202     -0.026202482    0.054098698    2019.7459     -156.93471     -85947.202      20.167501      17.529168      19.971754    
     31600   306.87975      0.0632         8.491885       0.075021703    0.15693393    -1093.2113      622.1822      -84918.85       20.205438      17.516294      19.975511    
     31700   298.10513      0.0634         8.8437126     -0.2411046      0             -1056.4776     -780.7487      -88437.126      20.229904      17.496511      19.979269    
     31800   303.48009      0.0636         8.9660808     -0.32711545     0             -2417.5055     -2026.1233     -89660.808      20.232761      17.507504      19.983026    
     31900   301.76516      0.0638         8.642912       0.0059640344   0.32316874    -1606.7763     -2059.0592     -86429.12       20.194358      17.542422      19.986784    
     32000   303.74849      0.064          8.7464308     -0.0807071      0.21964999    -2015.9175     -1263.8853     -87464.308      20.217919      17.507497      19.990542    
     32100   303.39607      0.0642         8.8154827     -0.12324008     0.1505981     -1884.4517     -1191.2263     -88154.827      20.217535      17.497486      19.994299    
     32200   298.41453      0.0644         8.8237392     -0.10924177     0.1423416     -1364.0498     -516.0884      -88237.392      20.208378      17.515589      19.998057    
     32300   297.06719      0.0646         8.6347725      0.086082989    0.33130829    -135.99405     -722.82186     -86347.725      20.185113      17.516442      20.001815    
     32400   290.5522       0.0648         8.8356525     -0.096113681    0.13042827     612.23405     -87.484323     -88356.525      20.199195      17.49194       20.005572    
     32500   307.30803      0.065          8.7690588     -0.012086162    0.19702192    -614.8798       2143.8794     -87690.588      20.22496       17.468622      20.00933     
     32600   313.26935      0.0652         8.8705652     -0.075724494    0.095515573    3335.1086      211.97563     -88705.652      20.132104      17.533656      20.013087    
     32700   290.91245      0.0654         8.9054336     -0.10442076     0.060647215    808.03613      4274.0916     -89054.336      20.222105      17.446848      20.016845    
     32800   307.42603      0.0656         8.8312733     -0.043741235    0.13480748     3953.5013      532.79254     -88312.733      20.167763      17.492989      20.020603    
     32900   303.45092      0.0658         8.7083129      0.085759243    0.25776788    -1090.759       3637.8226     -87083.129      20.219811      17.46812       20.02436     
     33000   304.53852      0.066          8.9385041     -0.12522458     0.027576721    2102.1465     -1392.8551     -89385.041      20.153133      17.534244      20.028118    
     33100   285.45342      0.0662         9.0500564     -0.2133196      0             -1759.5101      1403.6248     -90500.564      20.244856      17.46064       20.031876    
     33200   297.00221      0.0664         9.0665089     -0.20549506     0             -616.87473     -769.28217     -90665.089      20.204385      17.499373      20.035633    
     33300   308.58555      0.0666         8.8799349      0.0055951534   0.18657397    -740.81198     -1603.2808     -88799.349      20.185606      17.518878      20.039391    
     33400   284.25503      0.0668         9.2258399     -0.30129106     0             -1668.2229     -567.57967     -92258.399      20.212767      17.493155      20.043148    
     33500   308.27024      0.067          9.212789      -0.24386723     0.013050818   -382.59235     -2219.1432     -92127.89       20.197356      17.50491       20.046906    
     33600   309.78866      0.0672         9.0961458     -0.10466591     0.12969408    -2995.1225      721.95722     -90961.458      20.210487      17.488734      20.050664    
     33700   314.86579      0.0674         9.131474      -0.1173901      0.094365839    829.21945     -1503.1379     -91314.74       20.169025      17.522119      20.054421    
     33800   302.43886      0.0676         9.3025272     -0.24131794     0              252.00027      1140.6826     -93025.272      20.209799      17.466352      20.058179    
     33900   308.8509       0.0678         9.259772      -0.14341676     0.042755268    298.29555      2961.1901     -92597.72       20.199763      17.460517      20.061937    
     34000   317.54542      0.068          9.1242323      0.010695734    0.17829494     6451.3846      1063.4847     -91242.323      20.106084      17.522292      20.065694    
     34100   296.47032      0.0682         8.9905367      0.13843937     0.31199055     2050.7194      8970.8392     -89905.367      20.206127      17.408452      20.069452    
     34200   295.81228      0.0684         8.9866042      0.13438143     0.31592307     8033.3752      1142.2358     -89866.042      20.110421      17.493035      20.073209    
     34300   282.93216      0.0686         9.2207838     -0.065713339    0.081743414    86.058656      5442.486      -92207.838      20.210162      17.427813      20.076967    
     34400   302.2021       0.0688         9.1234479      0.021383389    0.17907934     1434.8951     -100.25655     -91234.479      20.149174      17.508642      20.080725    
     34500   309.49772      0.069          9.31551       -0.16040661     0             -943.46386     -2774.7312     -93155.1        20.199991      17.491959      20.084482    
     34600   286.1923       0.0692         9.3931186     -0.20831789     0             -4762.8001     -1110.8306     -93931.186      20.244889      17.460388      20.08824     
     34700   310.53429      0.0694         9.3728913     -0.1639489      0.020227258   -1311.0102     -4687.8583     -93728.913      20.161919      17.535701      20.091997    
     34800   298.93295      0.0696         9.1142317      0.075881144    0.27888686    -2266.9221     -644.92435     -91142.317      20.196383      17.485683      20.095755    
     34900   292.49667      0.0698         9.4295741     -0.22248106     0             -320.97907     -755.40126     -94295.741      20.188669      17.470296      20.099513    
     35000   284.70102      0.07           9.2180236     -0.0015513933   0.21155054     2062.1641      42.082169     -92180.236      20.165746      17.477522      20.10327     
     35100   311.36136      0.0702         9.1627012      0.070987399    0.26687287    -742.20981      3336.0288     -91627.012      20.187137      17.447873      20.107028    
     35200   297.97913      0.0704         9.2321775      0.026068449    0.19739659     5235.388      -278.32846     -92321.775      20.114243      17.503536      20.110786    
     35300   309.95361      0.0706         9.1568188      0.095030676    0.27275532    -1279.4924      5371.3307     -91568.188      20.238124      17.397929      20.114543    
     35400   286.16724      0.0708         9.301028      -0.031420535    0.1285461      4544.2862     -1084.707      -93010.28       20.098559      17.519429      20.118301    
     35500   283.91276      0.071          9.1980387      0.059821665    0.23153543    -673.4657       2727.9769     -91980.387      20.193786      17.445396      20.122058    
     35600   310.3439       0.0712         9.2471171     -0.0038568614   0.18245705    -505.55511     -859.26546     -92471.171      20.179158      17.480502      20.125816    
     35700   304.76854      0.0714         9.4975069     -0.24178512     0             -1281.6336     -2517.3859     -94975.069      20.176722      17.494448      20.129574    
     35800   294.75935      0.0716         9.589508      -0.28625865     0             -4206.2971      1177.5448     -95895.08       20.206469      17.458673      20.133331    
     35900   303.51478      0.0718         9.3385665     -0.044417826    0.25094159     1160.7096     -4677.4238     -93385.665      20.138786      17.527452      20.137089    
     36000   298.57722      0.072          9.5713615     -0.24187903     0.018146598   -4086.5246      1778.4538     -95713.615      20.232978      17.437277      20.140847    
     36100   313.70807      0.0722         9.4788884     -0.11778725     0.11061966     1274.1722     -3998.2887     -94788.884      20.144789      17.507091      20.144604    
     36200   305.32648      0.0724         9.344833       0.027533724    0.24467509    -955.12774     -815.84801     -93448.33       20.176887      17.483068      20.148362    
     36300   292.70461      0.0726         9.6016848     -0.18483148     0             -1276.1534      1212.9716     -96016.848      20.19626       17.452713      20.152119    
     36400   294.15906      0.0728         9.5235192     -0.0844168      0.078165569    1306.7565     -871.18185     -95235.192      20.146801      17.489213      20.155877    
     36500   313.72798      0.073          9.673212      -0.18659231     0             -1136.2692      2588.3934     -96732.12       20.202626      17.446629      20.159635    
     36600   309.26561      0.0732         9.4227818      0.081404377    0.25043021     1615.9724     -428.32664     -94227.818      20.156189      17.482745      20.163392    
     36700   293.18979      0.0734         9.6419469     -0.12331673     0.031265098   -84.937715     -555.88213     -96419.469      20.190168      17.456191      20.16715     
     36800   293.12489      0.0736         9.7496218     -0.21498025     0             -1216.8531     -437.10201     -97496.218      20.171187      17.477762      20.170908    
     36900   292.30154      0.0738         9.4036187      0.1375281      0.34600313     210.13826     -1832.2559     -94036.187      20.156027      17.496117      20.174665    
     37000   289.52663      0.074          9.6125234     -0.067260426    0.13709841    -2277.8339      701.30442     -96125.234      20.213025      17.427779      20.178423    
     37100   305.93721      0.0742         9.7352961     -0.16439229     0.014325773    1037.5668     -1871.8771     -97352.961      20.14482       17.492595      20.18218     
     37200   305.70504      0.0744         9.6781052     -0.073874229    0.071516607   -845.30303     -488.25942     -96781.052      20.165055      17.484462      20.185938    
     37300   300.05429      0.0746         9.9965282     -0.35281285     0             -1800.7691     -787.62525     -99965.282      20.172444      17.46988       20.189696    
     37400   296.69864      0.0748         9.811485      -0.13897304     0.18504323    -240.64105     -26.536359     -98114.85       20.181182      17.452922      20.193453    
     37500   301.34621      0.075          9.6831915     -0.0096816617   0.31333666     1122.3937      95.789396     -96831.915      20.142259      17.482829      20.197211    
     37600   297.14425      0.0752         9.9133514     -0.19078461     0.083176748    871.16235      847.69426     -99133.514      20.164386      17.446318      20.200968    
     37700   299.36595      0.0754         9.8843824     -0.13757199     0.11214583     2199.0906      468.98772     -98843.824      20.133033      17.475946      20.204726    
     37800   286.23048      0.0756         9.7964883     -0.044991246    0.20003993     318.27997      1362.6657     -97964.883      20.175552      17.447981      20.208484    
     37900   317.88592      0.0758         9.8538834     -0.057359945    0.14264476     840.00934     -335.47269     -98538.834      20.152552      17.469845      20.212241    
     38000   293.17965      0.076          9.8831906     -0.059600352    0.11333764    -351.09156     -644.73647     -98831.906      20.159403      17.47224       20.215999    
     38100   297.23175      0.0762         10.078337     -0.22044278     0             -489.17507     -2224.2386     -100783.37      20.162495      17.4782        20.219757    
     38200   322.4524       0.0764         9.890752      -0.011593046    0.18758506    -3107.4635     -1479.9221     -98907.52       20.203315      17.461073      20.223514    
     38300   303.97846      0.0766         9.8100384      0.050471565    0.26829864    -1614.3265     -1495.6773     -98100.384      20.163828      17.471327      20.227272    
     38400   295.85604      0.0768         9.8612461      0.0042399976   0.21709096     95.949594     -54.00972      -98612.461      20.148407      17.465366      20.231029    
     38500   308.57855      0.077          9.7639358      0.10962473     0.31440126     528.63366      1602.5033     -97639.358      20.166605      17.434539      20.234787    
     38600   295.96725      0.0772         9.7884425      0.072627126    0.28989454     2794.0914      938.81203     -97884.425      20.129824      17.458219      20.238545    
     38700   307.23008      0.0774         9.8993259     -0.036761834    0.17901124     1224.4105      2967.9213     -98993.259      20.144629      17.439646      20.242302    
     38800   300.22736      0.0776         10.054944     -0.16653455     0.02339293     3875.6827      1535.4684     -100549.44      20.120549      17.456893      20.24606     
     38900   303.20665      0.0778         10.060851     -0.15174452     0.017486221    1519.7092      3231.1287     -100608.51      20.159568      17.422696      20.249818    
     39000   301.01173      0.078          9.9123688     -0.00034458686  0.16596833     1645.2628      512.46989     -99123.688      20.12773       17.470324      20.253575    
     39100   301.4367       0.0782         10.150472     -0.23123455     0             -437.28293     -1322.6975     -101504.72      20.138382      17.474395      20.257333    
     39200   303.99647      0.0784         10.069709     -0.13257546     0.080763411   -3770.3638     -510.61833     -100697.09      20.204798      17.42901       20.26109     
     39300   301.99512      0.0786         10.15477      -0.18316388     0              46.160174     -6142.6228     -101547.7       20.127363      17.517661      20.264848    
     39400   292.94487      0.0788         10.070246     -0.077739262    0.084524654   -5427.128      -42.297597     -100702.46      20.229454      17.420378      20.268606    
     39500   314.24183      0.079          10.056715     -0.034930891    0.09805507     1816.2988     -4176.0777     -100567.15      20.091553      17.514081      20.272363    
     39600   322.74837      0.0792         9.840034       0.18690959     0.3147364     -1238.3894      1289.4134     -98400.34       20.171165      17.434419      20.276121    
[...]
     46800   298.09281      0.0936         10.772231      0.11361793     0.2931413      486.11516      590.40955     -107722.31      20.089782      17.404809      20.54667     
     46900   298.52727      0.0938         10.792057      0.10476066     0.27331565     3291.9052     -37.628809     -107920.57      20.058639      17.426563      20.550427    
     47000   294.62491      0.094          11.214443     -0.2683452      0             -1108.8713      5207.9802     -112144.43      20.139466      17.34385       20.554185    
     47100   306.69006      0.0942         11.12762      -0.15933785     0.0868232      4769.0404     -1823.4486     -111276.2       20.039436      17.446693      20.557942    
     47200   308.63194      0.0944         11.071074     -0.091874444    0.14336898    -3583.3822      4225.2663     -110710.74      20.144888      17.365411      20.5617      
     47300   295.52626      0.0946         11.158461     -0.1478741      0.05598177     2105.4924     -5342.5816     -111584.61      20.029351      17.487398      20.565458    
     47400   294.83637      0.0948         11.246756     -0.21184915     0             -4466.5775     -958.90535     -112467.56      20.167752      17.38443       20.569215    
     47500   310.68017      0.095          11.033722      0.015189124    0.2130337     -4295.0279     -1886.3522     -110337.22      20.146232      17.408086      20.572973    
     47600   307.38268      0.0952         11.217706     -0.14776201     0.029049401    540.18453     -4020.2882     -112177.06      20.049596      17.467932      20.576731    
     47700   298.81079      0.0954         11.077578     -0.0064133687   0.16917747    -2427.8521      2664.3361     -110775.78      20.135818      17.368235      20.580488    
     47800   303.71424      0.0956         11.167373     -0.056694389    0.079382229    2964.37       -1298.8302     -111673.73      20.05501       17.42463       20.584246    
     47900   313.13312      0.0958         10.999687      0.13175531     0.24706894     186.27165      2581.4039     -109996.87      20.105161      17.375903      20.588003    
     48000   293.16265      0.096          11.114602      0.0068561796   0.13215394     2189.0711      1649.914      -111146.02      20.060091      17.404173      20.591761    
     48100   283.65254      0.0962         11.16746      -0.042017975    0.079295776    1305.3346      944.83924     -111674.6       20.07988       17.400145      20.595519    
     48200   299.84905      0.0964         11.067933      0.057194987    0.17882286    -396.32406      472.32825     -110679.33      20.085603      17.412695      20.599276    
     48300   302.39634      0.0966         11.19955      -0.070313295    0.047205707   -1604.8578     -439.16749     -111995.5       20.101885      17.393014      20.603034    
     48400   287.53387      0.0968         11.033784      0.074155159    0.21297129    -1775.9951     -2505.5066     -110337.84      20.098524      17.411484      20.606791    
     48500   311.68289      0.097          11.109751      0.0057914127   0.13700464    -5128.4557     -3283.1375     -111097.51      20.120428      17.429091      20.610549    
     48600   287.21355      0.0972         11.315171     -0.18988189     0             -4254.32       -2679.8992     -113151.71      20.12394       17.409119      20.614307    
     48700   292.57918      0.0974         11.269862     -0.12534493     0.045308562    848.66088     -4846.8963     -112698.62      20.045446      17.458721      20.618064    
     48800   315.13969      0.0976         11.138069      0.0035172886   0.17710116    -2797.0347      4088.9721     -111380.69      20.176742      17.315723      20.621822    
     48900   288.98075      0.0978         10.894982      0.23613443     0.42018877     7300.3972      399.60147     -108949.82      19.973578      17.431997      20.62558     
     49000   314.24057      0.098          11.101337      0.028452599    0.21383337     983.65725      7184.4874     -111013.37      20.094898      17.330654      20.629337    
     49100   318.20707      0.0982         11.025689      0.089923674    0.28948151     5118.2844      1579.4013     -110256.89      20.037922      17.409803      20.633095    
     49200   299.61168      0.0984         11.18085      -0.053945239    0.13432089     1165.3804      2813.1881     -111808.5       20.08273       17.378576      20.636852    
     49300   284.07247      0.0986         11.276483     -0.14188516     0.038687648   -1616.8956      2056.6158     -112764.83      20.110505      17.366068      20.64061     
     49400   299.4357       0.0988         11.237461     -0.082495538    0.077709589    1631.5532     -3973.8188     -112374.61      20.042375      17.449357      20.644368    
     49500   299.0753       0.099          11.249092     -0.080192414    0.066078596   -5566.3498      1180.0528     -112490.92      20.174178      17.348084      20.648125    
     49600   280.50991      0.0992         11.418753     -0.23949522     0              1093.2082     -6403.7487     -114187.53      20.024641      17.480124      20.651883    
     49700   300.28416      0.0994         11.718243     -0.49414677     0             -6571.3623      174.92113     -117182.43      20.169986      17.351384      20.655641    
     49800   293.83826      0.0996         11.37152      -0.1240792      0.34672249     1708.3765     -2865.3386     -113715.2       20.046493      17.438887      20.659398    
     49900   316.49582      0.0998         11.391463     -0.09437415     0.3267794      657.80038      926.53816     -113914.63      20.089073      17.372471      20.663156    
     50000   286.75365      0.1            11.238361      0.07243065     0.47988184     1990.0805      4280.748      -112383.61      20.078284      17.344847      20.666913    
     50100   301.43581      0.1002         11.237483      0.094488195    0.48076003     5782.7083      642.81243     -112374.83      20.016476      17.413785      20.670671    
     50200   300.13507      0.1004         11.168433      0.16229586     0.54980933    -610.51114      7052.6243     -111684.33      20.111718      17.316149      20.674429    
     50300   295.55653      0.1006         11.246919      0.080853417    0.47132324     6756.3754     -2160.4453     -112469.19      19.955289      17.460555      20.678186    
     50400   306.74181      0.1008         11.204227      0.12022246     0.51401569    -4485.0761      4143.9956     -112042.27      20.169741      17.311992      20.681944    
     50500   291.16452      0.101          11.313324      0.017548437    0.40491844     892.67435     -5350.3424     -113133.24      20.014914      17.466802      20.685702    
     50600   282.36914      0.1012         11.438329     -0.10549875     0.27991366    -7034.3286     -1701.0367     -114383.29      20.137247      17.391051      20.689459    
     50700   298.65808      0.1014         11.209572      0.072391186    0.50867066    -3088.5388     -5016.2614     -112095.72      20.073398      17.434685      20.693217    
     50800   282.80465      0.1016         11.138038      0.1205771      0.58020481    -2305.5374     -1728.607      -111380.38      20.093544      17.376869      20.696974    
     50900   298.99512      0.1018         11.253509     -0.0086895089   0.46473362    -904.8018       1182.5814     -112535.09      20.085461      17.370143      20.700732    
     51000   297.05577      0.102          11.29285      -0.042581337    0.4253929      2666.1264      186.51596     -112928.5       20.010997      17.418117      20.70449     
     51100   304.94529      0.1022         11.396977     -0.13075904     0.32126577    -509.97851      3811.4275     -113969.77      20.085914      17.339667      20.708247    
     51200   295.29321      0.1024         11.450372     -0.15596015     0.26787081     4352.5471      1378.1009     -114503.72      20.017017      17.387712      20.712005    
     51300   307.54367      0.1026         11.322762     -0.020766046    0.39548066    -15.01824       4405.3134     -113227.62      20.087148      17.34468       20.715762    
     51400   304.46905      0.1028         11.444438     -0.11842061     0.27380503     1916.0848     -1731.512      -114444.38      20.018955      17.421316      20.71952     
     51500   304.62113      0.103          11.730617     -0.36287092     0             -3506.964      -1021.1434     -117306.17      20.121223      17.369106      20.723278    
     51600   312.23075      0.1032         11.84176      -0.4336708      0             -3952.0641     -4560.2618     -118417.6       20.083242      17.433955      20.727035    
     51700   298.87154      0.1034         11.586707     -0.14090366     0.25505368    -3593.3459     -3451.5393     -115867.07      20.090068      17.413044      20.730793    
     51800   279.45777      0.1036         11.318059      0.1457463      0.52370155    -477.19867     -1339.5755     -113180.59      20.06653       17.382833      20.734551    
     51900   295.73985      0.1038         11.22792       0.23332616     0.61384032     1904.7092      1193.894      -112279.2       20.086291      17.342415      20.738308    
     52000   308.06678      0.104          11.264082      0.19428754     0.57767851     2664.4074      4816.7823     -112640.82      20.058357      17.324418      20.742066    
     52100   292.20732      0.1042         11.411027      0.048747087    0.43073302     5678.8815      3002.7771     -114110.27      19.984239      17.381347      20.745823    
     52200   300.58726      0.1044         11.369757      0.081956199    0.47200366     2151.0054      3157.1835     -113697.57      20.037934      17.36466       20.749581    
     52300   303.2519       0.1046         11.502115     -0.032466551    0.33964565     2140.4705      818.60442     -115021.15      20.04955       17.367427      20.753339    
     52400   291.76065      0.1048         11.677569     -0.18460749     0.16419161    -601.40358      284.98244     -116775.69      20.063537      17.3727        20.757096    
     52500   292.64415      0.105          11.505355     -0.034920289    0.33640501    -809.83913     -1255.0828     -115053.55      20.054418      17.40676       20.760854    
     52600   297.535        0.1052         11.614459     -0.16675413     0.22730131    -2453.8513     -2669.5086     -116144.59      20.069631      17.400327      20.764612    
     52700   277.81811      0.1054         11.475143     -0.038594606    0.36661718    -2002.7872     -428.74169     -114751.43      20.079636      17.367893      20.768369    
     52800   293.59515      0.1056         11.622909     -0.15587509     0.21885171     730.5758      -2010.4501     -116229.09      20.044201      17.403881      20.772127    
     52900   309.07425      0.1058         11.645563     -0.1367651      0.19619741     291.65119     -6.2002215     -116455.63      20.03688       17.392379      20.775884    
     53000   296.84835      0.106          11.654609     -0.1067589      0.18715084     962.50454      2156.4904     -116546.09      20.051082      17.35721       20.779642    
     53100   306.98712      0.1062         11.473792      0.080334755    0.36796799     1683.5524      2179.7071     -114737.92      20.057163      17.346461      20.7834      
     53200   295.51189      0.1064         11.366824      0.18700934     0.4749358      2180.3641      1011.4004     -113668.24      20.040748      17.369962      20.787157    
     53300   298.06795      0.1066         11.773831     -0.19282533     0.067929506   -1364.4354      35.397055     -117738.31      20.07763       17.364289      20.790915    
     53400   301.06912      0.1068         11.833789     -0.23716192     0.0079708444  -1753.6957     -2337.1807     -118337.89      20.066376      17.392687      20.794673    
     53500   316.94853      0.107          11.811941     -0.18465529     0.02981885    -3636.0887     -3611.5765     -118119.41      20.079854      17.406904      20.79843     
     53600   297.26141      0.1072         11.649538     -0.018743642    0.19222263    -4827.8449     -1008.4799     -116495.38      20.105317      17.364533      20.802188    
     53700   304.04126      0.1074         11.645581      0.0022563831   0.19617882    -0.7839763     -3503.2368     -116455.81      20.011597      17.425966      20.805945    
     53800   288.03997      0.1076         11.770487     -0.10789141     0.07127318    -2197.9735      4040.6783     -117704.87      20.093487      17.320073      20.809703    
     53900   287.39793      0.1078         11.727067     -0.056320886    0.11469329     5452.1752     -267.32928     -117270.67      19.956485      17.410014      20.813461    
     54000   302.78982      0.108          11.41243       0.23409796     0.42933005     770.95216      6234.3039     -114124.3       20.065131      17.316273      20.817218    
     54100   305.25226      0.1082         11.791718     -0.11339754     0.050041948    4060.4368     -78.301776     -117917.18      20.004323      17.38318       20.820976    
     54200   293.5243       0.1084         11.887593     -0.15719556     0              715.50281      871.76332     -118875.93      20.032554      17.370132      20.824733    
     54300   298.94552      0.1086         11.677126      0.04360111     0.21046714    -1829.9515      1151.6325     -116771.26      20.074181      17.351902      20.828491    
     54400   317.64397      0.1088         11.622084      0.077473086    0.26550971    -539.47459     -2725.9811     -116220.84      20.032426      17.402959      20.832249    
     54500   292.22066      0.109          11.783215     -0.086530646    0.10437867    -2922.8311     -109.1099      -117832.15      20.092268      17.350585      20.836006    
     54600   309.52979      0.1092         12.054693     -0.3174935      0              91.954567     -3261.9874     -120546.93      20.009372      17.417788      20.839764    
     54700   317.20167      0.1094         11.472135      0.24771963     0.58255775    -1314.323       1554.3849     -114721.35      20.06151       17.345143      20.843522    
     54800   298.53192      0.1096         11.519287      0.17544794     0.53540609     4309.4476      480.70193     -115192.87      19.994074      17.373855      20.847279    
     54900   295.81514      0.1098         11.404039      0.25839291     0.65065385     1751.8048      5128.9533     -114040.39      20.071326      17.286871      20.851037    
     55000   301.74238      0.11           11.307389      0.34453872     0.74730376     3271.6293      887.54988     -113073.89      20.007678      17.36935       20.854794    
     55100   300.97506      0.1102         11.566219      0.063158981    0.48847396     285.37584     -863.5643      -115662.19      20.030124      17.380748      20.858552    
     55200   289.22639      0.1104         11.64546      -0.040294973    0.40923337    -2878.0729     -994.41271     -116454.6       20.083691      17.35127       20.86231     
     55300   310.35599      0.1106         11.502607      0.085105742    0.552086      -810.00804     -4254.0165     -115026.07      20.049585      17.391609      20.866067    
     55400   298.57226      0.1108         11.284658      0.26931257     0.77003543    -4474.6357     -125.37162     -112846.58      20.091167      17.336294      20.869825    
     55500   300.6533       0.111          11.393012      0.12193812     0.66168127     636.29328     -3599.4799     -113930.12      19.99972       17.4056        20.873583    
     55600   291.88343      0.1112         10.952908      0.45186349     1.1017852     -1964.2201      2843.3831     -109529.08      20.044259      17.312477      20.87734     
Fix halt condition for fix-id halt_peak_fix met on step 55700 with value 1
     55700   294.42769      0.1114         9.7287705      1.5016643      2.3259225      4289.9251      676.46143     -97287.705      19.851673      17.34469       20.881098    
Loop time of 160.994 on 1 procs for 55700 steps with 576 atoms

Performance: 59.785 ns/day, 0.401 hours/ns, 345.976 timesteps/s, 199.282 katom-step/s
109.2% CPU use with 1 MPI tasks x 1 OpenMP threads

MPI task timing breakdown:
Section |  min time  |  avg time  |  max time  |%varavg| %total
---------------------------------------------------------------
Pair    | 157.28     | 157.28     | 157.28     |   0.0 | 97.69
Neigh   | 0.70191    | 0.70191    | 0.70191    |   0.0 |  0.44
Comm    | 0.62726    | 0.62726    | 0.62726    |   0.0 |  0.39
Output  | 1.1266     | 1.1266     | 1.1266     |   0.0 |  0.70
Modify  | 1.1405     | 1.1405     | 1.1405     |   0.0 |  0.71
Other   |            | 0.1222     |            |       |  0.08

Nlocal:            576 ave         576 max         576 min
Histogram: 1 0 0 0 0 0 0 0 0 0
Nghost:           5005 ave        5005 max        5005 min
Histogram: 1 0 0 0 0 0 0 0 0 0
Neighs:         129161 ave      129161 max      129161 min
Histogram: 1 0 0 0 0 0 0 0 0 0
FullNghs:       253964 ave      253964 max      253964 min
Histogram: 1 0 0 0 0 0 0 0 0 0

Total # of neighbors = 253964
Ave neighs/atom = 440.90972
Neighbor list builds = 157
Dangerous builds = 0
Total wall time: 0:02:48
38      0.11           11.307389      0.34453872     0.74730376     3271.6293      887.54988     -113073.89      20.007678      17.36935       20.854794    
     55100   300.97506      0.1102         11.566219      0.063158981    0.48847396     285.37584     -863.5643      -115662.19      20.030124      17.380748      20.858552    
     55200   289.22639      0.1104         11.64546      -0.040294973    0.40923337    -2878.0729     -994.41271     -116454.6       20.083691      17.35127       20.86231     
     55300   310.35599      0.1106         11.502607      0.085105742    0.552086      -810.00804     -4254.0165     -115026.07      20.049585      17.391609      20.866067    
     55400   298.57226      0.1108         11.284658      0.26931257     0.77003543    -4474.6357     -125.37162     -112846.58      20.091167      17.336294      20.869825    
     55500   300.6533       0.111          11.393012      0.12193812     0.66168127     636.29328     -3599.4799     -113930.12      19.99972       17.4056        20.873583    
     55600   291.88343      0.1112         10.952908      0.45186349     1.1017852     -1964.2201      2843.3831     -109529.08      20.044259      17.312477      20.87734     
Fix halt condition for fix-id halt_peak_fix met on step 55700 with value 1
     55700   294.42769      0.1114         9.7287705      1.5016643      2.3259225      4289.9251      676.46143     -97287.705      19.851673      17.34469       20.881098    
Loop time of 160.994 on 1 procs for 55700 steps with 576 atoms

Performance: 59.785 ns/day, 0.401 hours/ns, 345.976 timesteps/s, 199.282 katom-step/s
109.2% CPU use with 1 MPI tasks x 1 OpenMP threads

MPI task timing breakdown:
Section |  min time  |  avg time  |  max time  |%varavg| %total
---------------------------------------------------------------
Pair    | 157.28     | 157.28     | 157.28     |   0.0 | 97.69
Neigh   | 0.70191    | 0.70191    | 0.70191    |   0.0 |  0.44
Comm    | 0.62726    | 0.62726    | 0.62726    |   0.0 |  0.39
Output  | 1.1266     | 1.1266     | 1.1266     |   0.0 |  0.70
Modify  | 1.1405     | 1.1405     | 1.1405     |   0.0 |  0.71
Other   |            | 0.1222     |            |       |  0.08

Nlocal:            576 ave         576 max         576 min
Histogram: 1 0 0 0 0 0 0 0 0 0
Nghost:           5005 ave        5005 max        5005 min
Histogram: 1 0 0 0 0 0 0 0 0 0
Neighs:         129161 ave      129161 max      129161 min
Histogram: 1 0 0 0 0 0 0 0 0 0
FullNghs:       253964 ave      253964 max      253964 min
Histogram: 1 0 0 0 0 0 0 0 0 0

Total # of neighbors = 253964
Ave neighs/atom = 440.90972
Neighbor list builds = 157
Dangerous builds = 0
Total wall time: 0:02:48
